<?xml version="1.0"?>
<VTKFile type="UnstructuredGrid"  version="0.1"  >
<UnstructuredGrid>
<Piece  NumberOfPoints="2868" NumberOfCells="5400">
<Points>
<DataArray  type="Float64"  NumberOfComponents="3"  format="ascii">0.534923 0.326073 0  0.510642 0.314196 0  0.466125 0.293082 0  0.436448 0.281205 0  0.409468 0.275927 0  0.368998 0.270648 0  0.35281 0.275927 0  0.381139 0.302319 0  0.405421 0.326073 0  0.410817 0.33531 0  0.408119 0.349826 0  0.400025 0.357744 0  0.375743 0.368301 0  0.329878 0.392055 0  0.297502 0.432963 0  0.282663 0.476511 0  0.285361 0.524018 0  0.298851 0.572845 0  0.317737 0.6045160000000001 0  0.337972 0.6361869999999999 0  0.360904 0.674457 0  0.368998 0.69953 0  0.359555 0.7219640000000001 0  0.360904 0.757594 0  0.370347 0.766831 0  0.381139 0.762872 0  0.390582 0.741758 0  0.404072 0.720644 0  0.424307 0.707448 0  0.447239 0.702169 0  0.480964 0.704808 0  0.479615 0.6889729999999999 0  0.468823 0.675776 0  0.447239 0.6691780000000001 0  0.428354 0.6691780000000001 0  0.410817 0.6639 0  0.404072 0.653343 0  0.395978 0.628269 0  0.387884 0.59132 0  0.389233 0.576804 0  0.397327 0.557009 0  0.410817 0.547772 0  0.424307 0.546452 0  0.437797 0.55305 0  0.44589 0.5662469999999999 0  0.441843 0.582082 0  0.439145 0.5979179999999999 0  0.449937 0.609795 0  0.468823 0.603196 0  0.479615 0.59 0  0.489058 0.570205 0  0.494454 0.546452 0  0.505246 0.522699 0  0.522783 0.509502 0  0.55246 0.494986 0  0.586185 0.484429 0  0.615863 0.48047 0  0.64554 0.473872 0  0.6671240000000001 0.461995 0  0.683312 0.451438 0  0.696802 0.435603 0  0.703547 0.417128 0  0.7116400000000001 0.393374 0  0.7183850000000001 0.37226 0  0.7251300000000001 0.364342 0  0.739969 0.353785 0  0.7453650000000001 0.344548 0  0.7453650000000001 0.327393 0  0.737271 0.318155 0  0.7183850000000001 0.316835 0  0.7008490000000001 0.319475 0  0.677916 0.318155 0  0.650936 0.316835 0  0.610467 0.318155 0  0.57944 0.324753 0  0.559205 0.328712 0  0.5389699999999999 0.326073 0  1 1 0  1 0 0  0 0 0  0 1 0  0.532238 0.32476 0  0.528748 0.323052 0  0.52421 0.320833 0  0.518311 0.317947 0  0.503447 0.310783 0  0.494093 0.306347 0  0.481933 0.30058 0  0.452151 0.28749 0  0.392327 0.273691 0  0.379141 0.271971 0  0.360474 0.283066 0  0.369797 0.291752 0  0.391424 0.31238 0  0.399335 0.32012 0  0.40958 0.341964 0  0.393939 0.36039 0  0.386028 0.36383 0  0.364248 0.374254 0  0.349304 0.381994 0  0.315801 0.409841 0  0.292986 0.551616 0  0.350934 0.657818 0  0.360127 0.737055 0  0.360566 0.748664 0  0.385245 0.753692 0  0.396447 0.732578 0  0.466301 0.703661 0  0.459439 0.672908 0  0.418442 0.666195 0  0.400553 0.642441 0  0.39255 0.612619 0  0.389913 0.60058 0  0.392752 0.568197 0  0.444131 0.573132 0  0.458149 0.606926 0  0.5005540000000001 0.533026 0  0.571522 0.489019 0  0.632637 0.476741 0  0.689177 0.444553 0  0.708121 0.403702 0  0.715453 0.38144 0  0.732406 0.359166 0  0.7453650000000001 0.337089 0  0.72906 0.317581 0  0.629879 0.317522 0  0.59293 0.321884 0  0.568003 0.326991 0  0.55202 0.327775 0  0.546493 0.327054 0  0.542241 0.326499 0  1 0.9 0  1 0.8 0  1 0.7 0  1 0.6 0  1 0.5 0  1 0.4 0  1 0.3 0  1 0.2 0  1 0.1 0  0.9 0 0  0.8 0 0  0.7 0 0  0.6 0 0  0.5 0 0  0.4 0 0  0.3 0 0  0.2 0 0  0.1 0 0  0.1 1 0  0.2 1 0  0.3 1 0  0.4 1 0  0.5 1 0  0.6 1 0  0.7 1 0  0.8 1 0  0.9 1 0  0 0.1 0  0 0.2 0  0 0.3 0  0 0.4 0  0 0.5 0  0 0.6 0  0 0.7 0  0 0.8 0  0 0.9 0  0.535686 0.5031910000000001 0  0.753987 0.733359 0  0.167145 0.741436 0  0.173378 0.257204 0  0.733497 0.159862 0  0.554096 0.15788 0  0.849187 0.479053 0  0.488793 0.838452 0  0.138507 0.5592 0  0.30686 0.154944 0  0.348904 0.890523 0  0.058006 0.065099 0  0.06984899999999999 0.937917 0  0.93633 0.939704 0  0.934625 0.053613 0  0.343397 0.333452 0  0.473272 0.639943 0  0.433266 0.638072 0  0.415174 0.58269 0  0.533435 0.545042 0  0.390848 0.340652 0  0.53655 0.320242 0  0.127966 0.393775 0  0.83861 0.850455 0  0.635242 0.8551299999999999 0  0.852158 0.633441 0  0.653427 0.626848 0  0.861226 0.24292 0  0.166128 0.12976 0  0.216875 0.8698709999999999 0  0.458305 0.11179 0  0.84446 0.101633 0  0.202024 0.642528 0  0.644825 0.115855 0  0.671342 0.218358 0  0.251354 0.286186 0  0.262388 0.75153 0  0.063044 0.751571 0  0.068189 0.242962 0  0.435781 0.9053949999999999 0  0.934144 0.451133 0  0.568393 0.237622 0  0.814984 0.395506 0  0.752951 0.517227 0  0.456254 0.780699 0  0.073352 0.531116 0  0.337731 0.206071 0  0.363213 0.960371 0  0.330742 0.363592 0  0.516613 0.55705 0  0.369057 0.332992 0  0.500926 0.617309 0  0.498004 0.665534 0  0.412142 0.61178 0  0.454233 0.6366039999999999 0  0.422782 0.567496 0  0.541193 0.5214800000000001 0  0.439761 0.65557 0  0.5163 0.533672 0  0.414775 0.64562 0  0.40073 0.576135 0  0.430362 0.5880339999999999 0  0.385432 0.351492 0  0.400298 0.335397 0  0.398325 0.348194 0  0.528702 0.314885 0  0.540814 0.322334 0  0.534477 0.322953 0  0.619095 0.743583 0  0.885162 0.737972 0  0.08076 0.668849 0  0.90734 0.36634 0  0.09468699999999999 0.868937 0  0.759838 0.912152 0  0.901518 0.540898 0  0.747285 0.607479 0  0.229182 0.071641 0  0.06915399999999999 0.450091 0  0.244775 0.203309 0  0.076534 0.331755 0  0.897847 0.167826 0  0.578909 0.911415 0  0.07713299999999999 0.146341 0  0.477215 0.203448 0  0.922631 0.869341 0  0.517415 0.074785 0  0.297026 0.827793 0  0.7832710000000001 0.246505 0  0.74519 0.061079 0  0.36033 0.069068 0  0.210313 0.475228 0  0.859426 0.928758 0  0.5745479999999999 0.609182 0  0.243069 0.383398 0  0.283099 0.934598 0  0.417416 0.843141 0  0.643942 0.553164 0  0.112687 0.079336 0  0.281357 0.658386 0  0.765043 0.436177 0  0.611361 0.198486 0  0.234496 0.58911 0  0.206479 0.702638 0  0.679608 0.155818 0  0.62682 0.259978 0  0.690538 0.264164 0  0.448938 0.956308 0  0.808154 0.328403 0  0.379583 0.91913 0  0.308083 0.297769 0  0.312358 0.730249 0  0.563101 0.278576 0  0.435597 0.746198 0  0.385475 0.225229 0  0.572248 0.518034 0  0.357864 0.35422 0  0.497647 0.641694 0  0.458101 0.655768 0  0.360474 0.310727 0  0.467038 0.620139 0  0.47798 0.659909 0  0.41102 0.628072 0  0.48324 0.609015 0  0.427544 0.617941 0  0.388633 0.328253 0  0.405336 0.599404 0  0.408351 0.565178 0  0.42395 0.600985 0  0.431562 0.576523 0  0.424905 0.6551979999999999 0  0.398064 0.58782 0  0.427739 0.557934 0  0.5192909999999999 0.303443 0  0.53142 0.320293 0  0.5449000000000001 0.323642 0  0.537166 0.323513 0  0.153974 0.920841 0  0.9181859999999999 0.67343 0  0.759946 0.820588 0  0.5375259999999999 0.783091 0  0.816532 0.545843 0  0.813991 0.178083 0  0.836774 0.702023 0  0.149815 0.318856 0  0.662287 0.923338 0  0.680146 0.791192 0  0.708961 0.663172 0  0.9372779999999999 0.287318 0  0.574622 0.6881660000000001 0  0.5894740000000001 0.076262 0  0.502822 0.926683 0  0.222269 0.811068 0  0.380457 0.164786 0  0.15321 0.684154 0  0.458063 0.051413 0  0.161702 0.056026 0  0.199351 0.198818 0  0.298946 0.09553200000000001 0  0.902465 0.795949 0  0.121139 0.791477 0  0.906269 0.112287 0  0.056109 0.822332 0  0.512172 0.13237 0  0.940964 0.741805 0  0.888887 0.408777 0  0.354543 0.825964 0  0.808736 0.068638 0  0.068507 0.394071 0  0.719105 0.563843 0  0.247287 0.149664 0  0.293062 0.237128 0  0.240524 0.434997 0  0.141255 0.623289 0  0.945202 0.160621 0  0.502914 0.247629 0  0.144669 0.480811 0  0.665025 0.060817 0  0.728047 0.224344 0  0.861995 0.313312 0  0.200068 0.534235 0  0.253262 0.965623 0  0.893804 0.49307 0  0.604391 0.572456 0  0.947088 0.345347 0  0.439372 0.227307 0  0.629847 0.159823 0  0.273405 0.880181 0  0.302744 0.776823 0  0.781502 0.295365 0  0.275342 0.349602 0  0.7283849999999999 0.472798 0  0.229136 0.246478 0  0.807794 0.480346 0  0.709476 0.112786 0  0.275506 0.694991 0  0.771674 0.394419 0  0.449715 0.861802 0  0.419159 0.799696 0  0.674851 0.503139 0  0.280443 0.61016 0  0.572443 0.192538 0  0.393113 0.87525 0  0.405555 0.948428 0  0.330942 0.934103 0  0.540509 0.597101 0  0.312763 0.6689310000000001 0  0.254368 0.540179 0  0.595265 0.25915 0  0.606679 0.234099 0  0.657131 0.279138 0  0.722458 0.279478 0  0.333 0.308056 0  0.351529 0.246142 0  0.455714 0.7257940000000001 0  0.585239 0.295143 0  0.340062 0.72492 0  0.545593 0.293773 0  0.555449 0.545426 0  0.414311 0.737314 0  0.590854 0.502323 0  0.350507 0.368444 0  0.484423 0.625665 0  0.483899 0.674542 0  0.378137 0.317274 0  0.446416 0.646404 0  0.373532 0.347654 0  0.446876 0.619769 0  0.466106 0.666068 0  0.437545 0.609254 0  0.434988 0.565726 0  0.41462 0.656829 0  0.418803 0.556961 0  0.398425 0.327446 0  0.517803 0.310421 0  0.549516 0.322918 0  0.57701 0.842889 0  0.8291269999999999 0.773906 0  0.643235 0.684732 0  0.134281 0.207734 0  0.865997 0.055966 0  0.680959 0.723345 0  0.165229 0.8415550000000001 0  0.54558 0.959672 0  0.783726 0.656439 0  0.913315 0.595533 0  0.699439 0.860667 0  0.785839 0.125076 0  0.551673 0.037713 0  0.9200970000000001 0.223214 0  0.206406 0.299726 0  0.087064 0.596401 0  0.935644 0.394252 0  0.964557 0.252582 0  0.230124 0.928346 0  0.120579 0.271764 0  0.8572149999999999 0.524082 0  0.7670979999999999 0.5551469999999999 0  0.936094 0.507131 0  0.804064 0.59585 0  0.700565 0.608273 0  0.429773 0.174231 0  0.117746 0.727333 0  0.5389620000000001 0.730231 0  0.862761 0.359173 0  0.821444 0.284046 0  0.193552 0.35818 0  0.234923 0.505555 0  0.193209 0.421217 0  0.220144 0.755896 0  0.594015 0.131642 0  0.283813 0.195855 0  0.517519 0.213961 0  0.553509 0.639116 0  0.280391 0.378018 0  0.852183 0.436817 0  0.746983 0.197173 0  0.821806 0.221318 0  0.449853 0.828453 0  0.883758 0.453926 0  0.183484 0.589542 0  0.348384 0.129314 0  0.255254 0.838525 0  0.504849 0.798516 0  0.320344 0.863432 0  0.611669 0.525425 0  0.265864 0.804962 0  0.72056 0.521442 0  0.613372 0.6101220000000001 0  0.481262 0.881068 0  0.655778 0.191988 0  0.701921 0.196918 0  0.5658260000000001 0.5731810000000001 0  0.46914 0.240927 0  0.343219 0.173284 0  0.888786 0.278502 0  0.244113 0.6750930000000001 0  0.739546 0.417914 0  0.784023 0.355942 0  0.326805 0.265549 0  0.248616 0.6
[...]
<PointData  Vectors="f_21"> 
<DataArray  type="Float64"  Name="f_21"  NumberOfComponents="3" format="ascii">2.8353571232170005e-01 -5.7163169084530868e-02 0.0000000000000000e+00  2.7589555699273238e-01 -5.3555011702520174e-02 0.0000000000000000e+00  2.3994098107895481e-01 -3.9295217699612556e-02 0.0000000000000000e+00  2.0222588044850115e-01 -2.8563568284363183e-02 0.0000000000000000e+00  1.6563658565033607e-01 -2.0158920311625327e-02 0.0000000000000000e+00  1.0179936776589808e-01 -4.2510520119149898e-03 0.0000000000000000e+00  6.5352750290912753e-02 -1.7035505043453678e-03 0.0000000000000000e+00  2.6335780824879182e-02 1.4106329172475328e-02 0.0000000000000000e+00  1.4324240813653440e-02 1.9575263689789454e-02 0.0000000000000000e+00  1.0810017976625780e-02 2.1324359587969768e-02 0.0000000000000000e+00  5.3686053064115379e-03 2.0149810494479864e-02 0.0000000000000000e+00  2.5251882607171079e-03 1.7081014651839990e-02 0.0000000000000000e+00  -3.8511946679250196e-04 8.1021616759529343e-03 0.0000000000000000e+00  -1.0076570616837873e-03 -3.7583732885454052e-03 0.0000000000000000e+00  5.8466752242944204e-05 -3.3314707113298553e-03 0.0000000000000000e+00  6.0162327959295935e-05 -1.1543891845863937e-03 0.0000000000000000e+00  -2.9392491484825120e-05 3.1694714108686727e-04 0.0000000000000000e+00  -6.7114719508347116e-05 1.8462811932169693e-03 0.0000000000000000e+00  -5.2089255917517157e-04 2.8362418878849745e-03 0.0000000000000000e+00  -9.0466064963899337e-04 1.7183948529810708e-03 0.0000000000000000e+00  2.9170425725361529e-03 -5.8643534336741826e-03 0.0000000000000000e+00  1.1019970574086215e-02 -1.1327597340700195e-02 0.0000000000000000e+00  2.2027838513714003e-02 -1.0778932686485897e-02 0.0000000000000000e+00  6.7396947114951561e-02 -1.4377177536230166e-02 0.0000000000000000e+00  1.0781940575531987e-01 -2.0169300970880547e-02 0.0000000000000000e+00  1.4308872180356347e-01 -1.7653596883552457e-02 0.0000000000000000e+00  1.9342551848392583e-01 -1.3000789446667665e-02 0.0000000000000000e+00  2.1657970764061130e-01 -1.5120371056192810e-03 0.0000000000000000e+00  2.2454745710627036e-01 8.3534537000781832e-03 0.0000000000000000e+00  2.2720616180265843e-01 1.0134609619289270e-02 0.0000000000000000e+00  2.5268519229083586e-01 -2.1376688849207872e-02 0.0000000000000000e+00  2.9377352659235423e-01 -4.1718413309692455e-02 0.0000000000000000e+00  3.2226518694082579e-01 -5.4269350252873598e-02 0.0000000000000000e+00  3.4887697354981195e-01 -4.5002303872503119e-02 0.0000000000000000e+00  3.6630759649654238e-01 -1.4023827071367831e-02 0.0000000000000000e+00  3.6366233911653045e-01 2.1275880034218139e-02 0.0000000000000000e+00  3.4797455988783865e-01 3.6285493288985893e-02 0.0000000000000000e+00  3.0359982370136435e-01 7.3083900202763036e-02 0.0000000000000000e+00  1.8400917030106598e-01 1.3127967660353529e-01 0.0000000000000000e+00  1.2564031506856332e-01 1.3136577800404650e-01 0.0000000000000000e+00  4.3832546264805011e-02 1.0292826916268215e-01 0.0000000000000000e+00  5.5808692443655491e-03 4.9938426626270099e-02 0.0000000000000000e+00  -2.7768181670156526e-04 -3.6521992612207209e-03 0.0000000000000000e+00  2.5851193414079900e-02 -5.8074380207324430e-02 0.0000000000000000e+00  8.0609671240719522e-02 -9.2000198393781055e-02 0.0000000000000000e+00  1.5017402934088411e-01 -7.3333696396202297e-02 0.0000000000000000e+00  2.2647963885092459e-01 -4.9641687056858230e-02 0.0000000000000000e+00  2.9884198958639313e-01 -5.7688007972820213e-02 0.0000000000000000e+00  3.4644957822803502e-01 -6.1283987456868680e-02 0.0000000000000000e+00  3.8173604432638558e-01 -5.8865947227206152e-02 0.0000000000000000e+00  4.1828224198533503e-01 -5.4600354498022523e-02 0.0000000000000000e+00  4.5104033613545608e-01 -4.9645923636784883e-02 0.0000000000000000e+00  4.7562052220689177e-01 -3.7896768243297796e-02 0.0000000000000000e+00  4.8633717415051947e-01 -2.1770170613922710e-02 0.0000000000000000e+00  4.9446869360537105e-01 -1.9647048407691579e-05 0.0000000000000000e+00  4.9844838961610982e-01 1.6357867874756789e-02 0.0000000000000000e+00  5.0279571988932437e-01 2.4298544932396898e-02 0.0000000000000000e+00  5.1453200932678167e-01 2.7495173261323048e-02 0.0000000000000000e+00  5.2961678116635147e-01 3.0675118825132162e-02 0.0000000000000000e+00  5.4149919868390195e-01 3.4132030270783140e-02 0.0000000000000000e+00  5.5389964226639254e-01 3.9110285217021604e-02 0.0000000000000000e+00  5.6267968670896551e-01 4.4013442972259058e-02 0.0000000000000000e+00  5.6761094214670338e-01 5.1604703301695420e-02 0.0000000000000000e+00  5.6742766029482206e-01 5.6706858828606502e-02 0.0000000000000000e+00  5.6704008740172729e-01 5.8654629790074929e-02 0.0000000000000000e+00  5.6277240989833421e-01 6.4436353977550390e-02 0.0000000000000000e+00  5.5259750268840258e-01 6.7564481731146125e-02 0.0000000000000000e+00  5.1600200969040388e-01 6.8832485233143309e-02 0.0000000000000000e+00  4.7708090125763736e-01 6.5207454939726711e-02 0.0000000000000000e+00  4.3003881121249771e-01 4.5869488091694922e-02 0.0000000000000000e+00  4.0218032578224810e-01 2.9619399285238927e-02 0.0000000000000000e+00  3.7787568830041018e-01 1.4245479728113773e-02 0.0000000000000000e+00  3.4900273415553623e-01 -2.6467307459154604e-03 0.0000000000000000e+00  3.1128201416901147e-01 -2.8679551795414916e-02 0.0000000000000000e+00  2.9141364885946619e-01 -4.6898717163446076e-02 0.0000000000000000e+00  2.8602945320019951e-01 -5.4382716914726958e-02 0.0000000000000000e+00  2.8387295952983965e-01 -5.7122023986574177e-02 0.0000000000000000e+00  6.9541541172610333e-01 -1.9416452593212158e-01 0.0000000000000000e+00  6.9993424987669017e-01 1.6911141346582576e-01 0.0000000000000000e+00  0.0000000000000000e+00 0.0000000000000000e+00 0.0000000000000000e+00  0.0000000000000000e+00 0.0000000000000000e+00 0.0000000000000000e+00  2.8322552207675267e-01 -5.6987540567401192e-02 0.0000000000000000e+00  2.8253459426587768e-01 -5.6650281180028961e-02 0.0000000000000000e+00  2.8131187055262569e-01 -5.6108971958352655e-02 0.0000000000000000e+00  2.7929300876938090e-01 -5.5133098745682903e-02 0.0000000000000000e+00  2.7200241206000880e-01 -5.1760146752506238e-02 0.0000000000000000e+00  2.6589491626813666e-01 -4.9118163940186171e-02 0.0000000000000000e+00  2.5618836402971040e-01 -4.5014658112917875e-02 0.0000000000000000e+00  2.2387408547590062e-01 -3.4171716047142149e-02 0.0000000000000000e+00  1.4232857307153943e-01 -1.4317529594922204e-02 0.0000000000000000e+00  1.2250690210724571e-01 -9.0213810630044994e-03 0.0000000000000000e+00  4.7221527961392964e-02 7.8495504605921949e-03 0.0000000000000000e+00  3.5300455074255700e-02 1.1581612622578112e-02 0.0000000000000000e+00  2.0288705638573309e-02 1.5978706328955511e-02 0.0000000000000000e+00  1.6736430846384848e-02 1.7833384326346381e-02 0.0000000000000000e+00  8.3099803138422228e-03 2.0785864234146766e-02 0.0000000000000000e+00  1.6354386770102362e-03 1.4800929320109461e-02 0.0000000000000000e+00  6.0936209284815181e-04 1.1874467871190800e-02 0.0000000000000000e+00  -1.3181211684878079e-03 4.0635096405596625e-03 0.0000000000000000e+00  -1.5423661118931756e-03 -1.9846800268835357e-04 0.0000000000000000e+00  -3.9734765760765056e-04 -4.4179722249724175e-03 0.0000000000000000e+00  -1.8540909823681057e-05 1.1073273253341097e-03 0.0000000000000000e+00  1.0749158165381377e-04 -1.6788200708289626e-03 0.0000000000000000e+00  3.4599229005573211e-02 -1.4028011782118566e-02 0.0000000000000000e+00  4.9142906127725032e-02 -1.5922198227549408e-02 0.0000000000000000e+00  1.7238884870497070e-01 -1.7675523144021370e-02 0.0000000000000000e+00  2.0533568840140809e-01 -7.5683320208602628e-03 0.0000000000000000e+00  2.3400029471739589e-01 1.3452129689509153e-03 0.0000000000000000e+00  3.3508289345166214e-01 -5.3202502412487231e-02 0.0000000000000000e+00  3.6597118438106657e-01 5.7339871978996483e-03 0.0000000000000000e+00  3.3157711200073259e-01 4.9214414604334678e-02 0.0000000000000000e+00  2.6234035483196499e-01 9.7946176848247482e-02 0.0000000000000000e+00  2.2019636097392981e-01 1.1799531262370332e-01 0.0000000000000000e+00  9.0100861376206237e-02 1.1963719496802928e-01 0.0000000000000000e+00  1.1029627659985207e-01 -8.4444456183431910e-02 0.0000000000000000e+00  3.2156248722328556e-01 -6.0811478849454301e-02 0.0000000000000000e+00  4.6566014151229218e-01 -4.2965862348081113e-02 0.0000000000000000e+00  4.9678389061923384e-01 1.0438022353453204e-02 0.0000000000000000e+00  5.0853741836957678e-01 2.6536993745694414e-02 0.0000000000000000e+00  5.4749748090628081e-01 3.5970645815411047e-02 0.0000000000000000e+00  5.6631360486686544e-01 4.8332178951855438e-02 0.0000000000000000e+00  5.6779595007833139e-01 5.4935252451318722e-02 0.0000000000000000e+00  5.6562232362138143e-01 6.1183576551149713e-02 0.0000000000000000e+00  5.4008802327479766e-01 7.1351751547200082e-02 0.0000000000000000e+00  4.5330445227546023e-01 5.5657991684663337e-02 0.0000000000000000e+00  3.2782698459373188e-01 -1.6701191944385782e-02 0.0000000000000000e+00  2.9796442178242760e-01 -3.9709794279838111e-02 0.0000000000000000e+00  2.8780430550198866e-01 -5.1709734899831043e-02 0.0000000000000000e+00  2.8546424794776581e-01 -5.5865646386033516e-02 0.0000000000000000e+00  2.8481765831478961e-01 -5.6584479628769287e-02 0.0000000000000000e+00  2.8429153741255603e-01 -5.6955937080873757e-02 0.0000000000000000e+00  6.7797607622181255e-01 -1.5970927927579512e-01 0.0000000000000000e+00  6.6416800745178561e-01 -1.1595245779951349e-01 0.0000000000000000e+00  6.6141238793595614e-01 -5.7813059586479157e-02 0.0000000000000000e+00  6.8299435055538638e-01 2.1685387179023329e-03 0.0000000000000000e+00  7.2906793261443315e-01 3.7364836168864143e-02 0.0000000000000000e+00  7.4479561528617799e-01 4.4694287987083949e-02 0.0000000000000000e+00  7.2213825931421882e-01 5.7434164924318937e-02 0.0000000000000000e+00  6.9704808780159777e-01 9.0718279615212866e-02 0.0000000000000000e+00  6.9046536698324512e-01 1.3272225750562439e-01 0.0000000000000000e+00  6.0720641424628152e-01 1.5809876833549780e-01 0.0000000000000000e+00  5.1673499430403780e-01 1.4123568253846891e-01 0.0000000000000000e+00  4.2750157992861182e-01 1.1918858733552240e-01 0.0000000000000000e+00  3.3533409084895643e-01 9.1942941145152238e-02 0.0000000000000000e+00  2.4048186105886329e-01 6.5506991907734013e-02 0.0000000000000000e+00  1.4726821384658176e-01 4.2663378854365192e-02 0.0000000000000000e+00  7.3834973299951145e-02 2.2903252630923424e-02 0.0000000000000000e+00  2.5869074311534953e-02 8.3433116166145328e-03 0.0000000000000000e+00  4.2801203396758769e-03 1.2929114514082939e-03 0.0000000000000000e+00  4.2675231867363864e-03 -1.3615501384495897e-03 0.0000000000000000e+00  2.5513755441636067e-02 -7.9559625678157185e-03 0.0000000000000000e+00  7.6879702403903377e-02 -2.4503086739395906e-02 0.0000000000000000e+00  1.5427004509465378e-01 -4.8329960607697293e-02 0.0000000000000000e+00  2.4851487999382263e-01 -7.8538010762000607e-02 0.0000000000000000e+00  3.3741740815763355e-01 -1.1021893858567880e-01 0.0000000000000000e+00  4.2350769115372811e-01 -1.3595459589908068e-01 0.0000000000000000e+00  5.1172352558017475e-01 -1.5651085588701194e-01 0.0000000000000000e+00  6.0258508463845917e-01 -1.7525237121827408e-01 0.0000000000000000e+00  0.0000000000000000e+00 0.0000000000000000e+00 0.0000000000000000e+00  0.0000000000000000e+00 0.0000000000000000e+00 0.0000000000000000e+00  0.0000000000000000e+00 0.0000000000000000e+00 0.0000000000000000e+00  0.0000000000000000e+00 0.0000000000000000e+00 0.0000000000000000e+00  0.0000000000000000e+00 0.0000000000000000e+00 0.0000000000000000e+00  0.0000000000000000e+00 0.0000000000000000e+00 0.0000000000000000e+00  0.0000000000000000e+00 0.0000000000000000e+00 0.0000000000000000e+00  0.0000000000000000e+00 0.0000000000000000e+00 0.0000000000000000e+00  0.0000000000000000e+00 0.0000000000000000e+00 0.0000000000000000e+00  4.9012086978412528e-01 -1.1629987923633310e-02 0.0000000000000000e+00  4.2931295532633401e-01 -4.3619530688735912e-02 0.0000000000000000e+00  6.7587583256802589e-03 3.2995533939264021e-03 0.0000000000000000e+00  1.0097711645467460e-02 -3.3905878107182820e-03 0.0000000000000000e+00  4.4695025008017486e-01 8.3959098311696789e-02 0.0000000000000000e+00  2.7086817597762614e-01 1.2510606669424777e-02 0.0000000000000000e+00  6.0947337086747344e-01 2.7818469123873445e-02 0.0000000000000000e+00  2.0605385646850202e-01 -2.0206484720685890e-02 0.0000000000000000e+00  2.1118936113400771e-04 2.0795472670249364e-04 0.0000000000000000e+00  6.4698027348445972e-02 3.0060146159731869e-03 0.0000000000000000e+00  9.3874827412990136e-02 -1.4606352659960886e-02 0.0000000000000000e+00  1.3863413356306575e-03 1.4164845881340456e-04 0.0000000000000000e+00  1.7711373385949686e-03 -2.0816115215466739e-04 0.0000000000000000e+00  6.2483651493786008e-01 -1.6271023356742478e-01 0.0000000000000000e+00  6.3235743235785336e-01 1.4525331493997864e-01 0.0000000000000000e+00  1.0428116685592102e-02 -1.9809592087042024e-03 0.0000000000000000e+00  3.3220353526239171e-01 -5.8317005703346352e-02 0.0000000000000000e+00  3.2695921449626891e-01 -2.7612470214660127e-02 0.0000000000000000e+00  1.5378889253836142e-01 3.2875854968029111e-02 0.0000000000000000e+00  4.5319445586211660e-01 -1.2715345564796974e-02 0.0000000000000000e+00  8.6506432406488962e-03 1.4154897971578765e-02 0.0000000000000000e+00  2.8318997025163167e-01 -5.6889558135405714e-02 0.0000000000000000e+00  8.9320232966987793e-04 -7.9676068388986822e-04 0.0000000000000000e+00  5.1860074553366553e-01 -1.1177732931675184e-01 0.0000000000000000e+00  3.3483074270789132e-01 -6.8530295629092547e-02 0.0000000000000000e+00  5.3805721324736167e-01 -2.0902002801900538e-02 0.0000000000000000e+00  4.0379455281547189e-01 1.3548589171931106e-02 0.0000000000000000e+00  5.7385028293925955e-01 8.4698683650777110e-02 0.0000000000000000e+00  1.2368053989779014e-02 8.1481243369583425e-05 0.0000000000000000e+00  2.6099350209448893e-02 4.7153598013953993e-04 0.0000000000000000e+00  1.7629038354505652e-01 1.9119884783747675e-02 0.0000000000000000e+00  5.4533353277305352e-01 1.2070825147106971e-01 0.0000000000000000e+00  1.8890020347797076e-03 2.6741400124427354e-03 0.0000000000000000e+00  3.6385749065069267e-01 6.4138716554422368e-02 0.0000000000000000e+00  3.9125226273757641e-01 4.0676816715842036e-02 0.0000000000000000e+00  2.1364361145631630e-02 -1.0676870791208163e-02 0.0000000000000000e+00  2.5102503160862433e-02 1.0871072088502553e-02 0.0000000000000000e+00  9.9946201581405060e-04 3.2474542118834503e-04 0.0000000000000000e+00  1.5432371780192532e-03 -3.1980412636601209e-04 0.0000000000000000e+00  1.6299674842911274e-01 -3.0280833731262800e-02 0.0000000000000000e+00  6.8375193319270833e-01 3.4842070315686098e-02 0.0000000000000000e+00  2.9395976294436615e-01 -2.2607655801400325e-02 0.0000000000000000e+00  5.9614346004324847e-01 4.7672245409799467e-02 0.0000000000000000e+00  5.3325675112917292e-01 2.9905914488894594e-02 0.0000000000000000e+00  1.9456416983211103e-01 -1.4368949407924068e-03 0.0000000000000000e+00  6.5892136005116591e-05 1.7824614806693508e-05 0.0000000000000000e+00  8.4515461874566114e-02 1.4540926263458620e-03 0.0000000000000000e+00  1.1408324167354769e-01 -2.9255028449286145e-02 0.0000000000000000e+00  1.9909166480562637e-03 -4.1482426430941230e-03 0.0000000000000000e+00  4.3800465406691891e-01 -2.6135403430389309e-02 0.0000000000000000e+00  1.1004383694687965e-02 7.0727078570748721e-03 0.0000000000000000e+00  3.5227951308585326e-01 -3.9527615383390530e-02 0.0000000000000000e+00  3.2035044959876774e-01 -3.2959369660541415e-02 0.0000000000000000e+00  2.6553378778124392e-01 3.4437205388658798e-02 0.0000000000000000e+00  3.2755695789061406e-01 -5.8082182224672631e-02 0.0000000000000000e+00  8.7217776198688618e-02 3.3161808675515781e-03 0.0000000000000000e+00  4.7625839672645937e-01 -7.2548185867571981e-03 0.0000000000000000e+00  3.4312567264527460e-01 -3.7245456309124854e-02 0.0000000000000000e+00  4.6514350055198139e-01 -2.7312374101539735e-02 0.0000000000000000e+00  3.3683654324077150e-01 1.5092838901850692e-02 0.0000000000000000e+00  1.2402541050500583e-01 8.7150189402262407e-02 0.0000000000000000e+00  1.7910621695096723e-01 -2.2354091306775490e-02 0.0000000000000000e+00  4.7560667844265365e-03 1.1828934978625909e-02 0.0000000000000000e+00  1.0744234606995208e-02 1.7585155829286055e-02 0.0000000000000000e+00  5.9514593073831884e-03 1.6548078911132771e-02 0.0000000000000000e+00  2.8045064728260238e-01 -5.6228836814339669e-02 0.0000000000000000e+00  2.8409252564549126e-01 -5.6845340422506468e-02 0.0000000000000000e+00  2.8318213882814530e-01 -5.7049427115584077e-02 0.0000000000000000e+00  3.1566509112433455e-01 -1.9507803932518126e-02 0.0000000000000000e+00  5.4812767830583886e-01 -7.1752566933907733e-02 0.0000000000000000e+00  5.9482417476947784e-04 3.5492725067767068e-04 0.0000000000000000e+00  6.5699780793284435e-01 5.1777769781323611e-02 0.0000000000000000e+00  3.1319677164116703e-03 4.9893381139373180e-05 0.0000000000000000e+00  4.5820395371448769e-01 -1.2008412866319412e-01 0.0000000000000000e+00  6.2308395887796231e-01 8.8120191263484273e-03 0.0000000000000000e+00  4.7327871127649801e-01 7.5976000409278622e-03 0.0000000000000000e+00  3.0427054069043290e-02 3.7526146857388824e-03 0.0000000000000000e+00  1.3071659332111919e-04 -1.0965137666950463e-04 0.0000000000000000e+00  3.4713191914258673e-02 -4.0591826478761847e-03 0.0000000000000000e+00  8.9468866343032157e-04 -4.2489927477337420e-04 0.0000000000000000e+00  5.9585904956105329e-01 1.0746527965514432e-01 0.0000000000000000e+00  2.9554780836933753e-01 -7.3560896985587140e-02 0.0000000000000000e+00  2.2415865062782171e-03 -2.6929775815680544e-05 0.0000000000000000e+00  2.0010611854246566e-01 -1.4558726110174261e-02 0.0000000000000000e+00  5.9971142964667368e-01 -1.3495868972152458e-01 0.0000000000000000e+00  2.3934073286656465e-01 4.2493591350009595e-02 0.0000000000000000e+00  6.0981107580402767e-02 2.2105443332453764e-04 0.0000000000000000e+00  4.9705413640278678e-01 7.8889527157574149e-02 0.0000000000000000e+00  4.5892027285185455e-01 1.1200738244548596e-01 0.0000000000000000e+00  1.0211324003791560e-01 1.9026203583846300e-02 0.0000000000000000e+00  3.1969703621739266e-04 -6.0273655241279962e-04 0.0000000000000000e+00  5.5198023956806619e-01 -1.4462958707736676e-01 0.0000000000000000e+00  3.8656865746728436e-01 6.1495012758515022e-03 0.0000000000000000e+00  2.4028416271131394e-03 -4.8012019490200619e-03 0.0000000000000000e+00  5.7492805490752516e-02 -1.0269003607327085e-02 0.0000000000000000e+00  1.4371710120135389e-01 -1.5159198846964693e-02 0.0000000000000000e+00  4.6449721416530726e-01 2.4603760350791471e-02 0.0000000000000000e+00  4.7794074297787467e-03 4.3019139905976160e-04 0.0000000000000000e+00  2.1613579725263976e-03 5.8730272505854069e-03 0.0000000000000000e+00  5.7177731204158311e-01 4.7784447924498326e-02 0.0000000000000000e+00  3.3214939009085820e-01 1.3852222581437262e-02 0.0000000000000000e+00  4.4997702727552548e-04 1.4115397697002235e-03 0.0000000000000000e+00  6.5252054209831252e-03 5.4224015207841071e-03 0.0000000000000000e+00  3.9781079368955125e-01 6.4102863841080576e-02 0.0000000000000000e+00  3.4703365331649788e-01 -1.3199676749134368e-03 0.0000000000000000e+00  4.0772100081626533e-01 4.1351085938984622e-02 0.0000000000000000e+00  1.8703623811631853e-01 -4.8799705681001351e-02 0.0000000000000000e+00  5.6079048774464269e-01 5.5605262687492218e-02 0.0000000000000000e+00  1.1911797595582439e-01 -2.3851763016276614e-02 0.0000000000000000e+00  2.8369410616941232e-02 -1.2578576506242651e-02 0.0000000000000000e+00  2.5599746046836451e-02 9.3987843097190233e-03 0.0000000000000000e+00  2.9327339664843616e-01 -4.2095316900203891e-02 0.0000000000000000e+00  2.0424971157832780e-01 7.2017458825900382e-03 0.0000000000000000e+00  1.2021644183058176e-01 8.1383780734009171e-05 0.0000000000000000e+00  4.7949580267061209e-01 1.0943986805966683e-02 0.0000000000000000e+00  3.8015