<?xml version="1.0"?>
<VTKFile type="UnstructuredGrid"  version="0.1"  >
<UnstructuredGrid>
<Piece  NumberOfPoints="2868" NumberOfCells="5400">
<Points>
<DataArray  type="Float64"  NumberOfComponents="3"  format="ascii">0.534923 0.326073 0  0.510642 0.314196 0  0.466125 0.293082 0  0.436448 0.281205 0  0.409468 0.275927 0  0.368998 0.270648 0  0.35281 0.275927 0  0.381139 0.302319 0  0.405421 0.326073 0  0.410817 0.33531 0  0.408119 0.349826 0  0.400025 0.357744 0  0.375743 0.368301 0  0.329878 0.392055 0  0.297502 0.432963 0  0.282663 0.476511 0  0.285361 0.524018 0  0.298851 0.572845 0  0.317737 0.6045160000000001 0  0.337972 0.6361869999999999 0  0.360904 0.674457 0  0.368998 0.69953 0  0.359555 0.7219640000000001 0  0.360904 0.757594 0  0.370347 0.766831 0  0.381139 0.762872 0  0.390582 0.741758 0  0.404072 0.720644 0  0.424307 0.707448 0  0.447239 0.702169 0  0.480964 0.704808 0  0.479615 0.6889729999999999 0  0.468823 0.675776 0  0.447239 0.6691780000000001 0  0.428354 0.6691780000000001 0  0.410817 0.6639 0  0.404072 0.653343 0  0.395978 0.628269 0  0.387884 0.59132 0  0.389233 0.576804 0  0.397327 0.557009 0  0.410817 0.547772 0  0.424307 0.546452 0  0.437797 0.55305 0  0.44589 0.5662469999999999 0  0.441843 0.582082 0  0.439145 0.5979179999999999 0  0.449937 0.609795 0  0.468823 0.603196 0  0.479615 0.59 0  0.489058 0.570205 0  0.494454 0.546452 0  0.505246 0.522699 0  0.522783 0.509502 0  0.55246 0.494986 0  0.586185 0.484429 0  0.615863 0.48047 0  0.64554 0.473872 0  0.6671240000000001 0.461995 0  0.683312 0.451438 0  0.696802 0.435603 0  0.703547 0.417128 0  0.7116400000000001 0.393374 0  0.7183850000000001 0.37226 0  0.7251300000000001 0.364342 0  0.739969 0.353785 0  0.7453650000000001 0.344548 0  0.7453650000000001 0.327393 0  0.737271 0.318155 0  0.7183850000000001 0.316835 0  0.7008490000000001 0.319475 0  0.677916 0.318155 0  0.650936 0.316835 0  0.610467 0.318155 0  0.57944 0.324753 0  0.559205 0.328712 0  0.5389699999999999 0.326073 0  1 1 0  1 0 0  0 0 0  0 1 0  0.532238 0.32476 0  0.528748 0.323052 0  0.52421 0.320833 0  0.518311 0.317947 0  0.503447 0.310783 0  0.494093 0.306347 0  0.481933 0.30058 0  0.452151 0.28749 0  0.392327 0.273691 0  0.379141 0.271971 0  0.360474 0.283066 0  0.369797 0.291752 0  0.391424 0.31238 0  0.399335 0.32012 0  0.40958 0.341964 0  0.393939 0.36039 0  0.386028 0.36383 0  0.364248 0.374254 0  0.349304 0.381994 0  0.315801 0.409841 0  0.292986 0.551616 0  0.350934 0.657818 0  0.360127 0.737055 0  0.360566 0.748664 0  0.385245 0.753692 0  0.396447 0.732578 0  0.466301 0.703661 0  0.459439 0.672908 0  0.418442 0.666195 0  0.400553 0.642441 0  0.39255 0.612619 0  0.389913 0.60058 0  0.392752 0.568197 0  0.444131 0.573132 0  0.458149 0.606926 0  0.5005540000000001 0.533026 0  0.571522 0.489019 0  0.632637 0.476741 0  0.689177 0.444553 0  0.708121 0.403702 0  0.715453 0.38144 0  0.732406 0.359166 0  0.7453650000000001 0.337089 0  0.72906 0.317581 0  0.629879 0.317522 0  0.59293 0.321884 0  0.568003 0.326991 0  0.55202 0.327775 0  0.546493 0.327054 0  0.542241 0.326499 0  1 0.9 0  1 0.8 0  1 0.7 0  1 0.6 0  1 0.5 0  1 0.4 0  1 0.3 0  1 0.2 0  1 0.1 0  0.9 0 0  0.8 0 0  0.7 0 0  0.6 0 0  0.5 0 0  0.4 0 0  0.3 0 0  0.2 0 0  0.1 0 0  0.1 1 0  0.2 1 0  0.3 1 0  0.4 1 0  0.5 1 0  0.6 1 0  0.7 1 0  0.8 1 0  0.9 1 0  0 0.1 0  0 0.2 0  0 0.3 0  0 0.4 0  0 0.5 0  0 0.6 0  0 0.7 0  0 0.8 0  0 0.9 0  0.535686 0.5031910000000001 0  0.753987 0.733359 0  0.167145 0.741436 0  0.173378 0.257204 0  0.733497 0.159862 0  0.554096 0.15788 0  0.849187 0.479053 0  0.488793 0.838452 0  0.138507 0.5592 0  0.30686 0.154944 0  0.348904 0.890523 0  0.058006 0.065099 0  0.06984899999999999 0.937917 0  0.93633 0.939704 0  0.934625 0.053613 0  0.343397 0.333452 0  0.473272 0.639943 0  0.433266 0.638072 0  0.415174 0.58269 0  0.533435 0.545042 0  0.390848 0.340652 0  0.53655 0.320242 0  0.127966 0.393775 0  0.83861 0.850455 0  0.635242 0.8551299999999999 0  0.852158 0.633441 0  0.653427 0.626848 0  0.861226 0.24292 0  0.166128 0.12976 0  0.216875 0.8698709999999999 0  0.458305 0.11179 0  0.84446 0.101633 0  0.202024 0.642528 0  0.644825 0.115855 0  0.671342 0.218358 0  0.251354 0.286186 0  0.262388 0.75153 0  0.063044 0.751571 0  0.068189 0.242962 0  0.435781 0.9053949999999999 0  0.934144 0.451133 0  0.568393 0.237622 0  0.814984 0.395506 0  0.752951 0.517227 0  0.456254 0.780699 0  0.073352 0.531116 0  0.337731 0.206071 0  0.363213 0.960371 0  0.330742 0.363592 0  0.516613 0.55705 0  0.369057 0.332992 0  0.500926 0.617309 0  0.498004 0.665534 0  0.412142 0.61178 0  0.454233 0.6366039999999999 0  0.422782 0.567496 0  0.541193 0.5214800000000001 0  0.439761 0.65557 0  0.5163 0.533672 0  0.414775 0.64562 0  0.40073 0.576135 0  0.430362 0.5880339999999999 0  0.385432 0.351492 0  0.400298 0.335397 0  0.398325 0.348194 0  0.528702 0.314885 0  0.540814 0.322334 0  0.534477 0.322953 0  0.619095 0.743583 0  0.885162 0.737972 0  0.08076 0.668849 0  0.90734 0.36634 0  0.09468699999999999 0.868937 0  0.759838 0.912152 0  0.901518 0.540898 0  0.747285 0.607479 0  0.229182 0.071641 0  0.06915399999999999 0.450091 0  0.244775 0.203309 0  0.076534 0.331755 0  0.897847 0.167826 0  0.578909 0.911415 0  0.07713299999999999 0.146341 0  0.477215 0.203448 0  0.922631 0.869341 0  0.517415 0.074785 0  0.297026 0.827793 0  0.7832710000000001 0.246505 0  0.74519 0.061079 0  0.36033 0.069068 0  0.210313 0.475228 0  0.859426 0.928758 0  0.5745479999999999 0.609182 0  0.243069 0.383398 0  0.283099 0.934598 0  0.417416 0.843141 0  0.643942 0.553164 0  0.112687 0.079336 0  0.281357 0.658386 0  0.765043 0.436177 0  0.611361 0.198486 0  0.234496 0.58911 0  0.206479 0.702638 0  0.679608 0.155818 0  0.62682 0.259978 0  0.690538 0.264164 0  0.448938 0.956308 0  0.808154 0.328403 0  0.379583 0.91913 0  0.308083 0.297769 0  0.312358 0.730249 0  0.563101 0.278576 0  0.435597 0.746198 0  0.385475 0.225229 0  0.572248 0.518034 0  0.357864 0.35422 0  0.497647 0.641694 0  0.458101 0.655768 0  0.360474 0.310727 0  0.467038 0.620139 0  0.47798 0.659909 0  0.41102 0.628072 0  0.48324 0.609015 0  0.427544 0.617941 0  0.388633 0.328253 0  0.405336 0.599404 0  0.408351 0.565178 0  0.42395 0.600985 0  0.431562 0.576523 0  0.424905 0.6551979999999999 0  0.398064 0.58782 0  0.427739 0.557934 0  0.5192909999999999 0.303443 0  0.53142 0.320293 0  0.5449000000000001 0.323642 0  0.537166 0.323513 0  0.153974 0.920841 0  0.9181859999999999 0.67343 0  0.759946 0.820588 0  0.5375259999999999 0.783091 0  0.816532 0.545843 0  0.813991 0.178083 0  0.836774 0.702023 0  0.149815 0.318856 0  0.662287 0.923338 0  0.680146 0.791192 0  0.708961 0.663172 0  0.9372779999999999 0.287318 0  0.574622 0.6881660000000001 0  0.5894740000000001 0.076262 0  0.502822 0.926683 0  0.222269 0.811068 0  0.380457 0.164786 0  0.15321 0.684154 0  0.458063 0.051413 0  0.161702 0.056026 0  0.199351 0.198818 0  0.298946 0.09553200000000001 0  0.902465 0.795949 0  0.121139 0.791477 0  0.906269 0.112287 0  0.056109 0.822332 0  0.512172 0.13237 0  0.940964 0.741805 0  0.888887 0.408777 0  0.354543 0.825964 0  0.808736 0.068638 0  0.068507 0.394071 0  0.719105 0.563843 0  0.247287 0.149664 0  0.293062 0.237128 0  0.240524 0.434997 0  0.141255 0.623289 0  0.945202 0.160621 0  0.502914 0.247629 0  0.144669 0.480811 0  0.665025 0.060817 0  0.728047 0.224344 0  0.861995 0.313312 0  0.200068 0.534235 0  0.253262 0.965623 0  0.893804 0.49307 0  0.604391 0.572456 0  0.947088 0.345347 0  0.439372 0.227307 0  0.629847 0.159823 0  0.273405 0.880181 0  0.302744 0.776823 0  0.781502 0.295365 0  0.275342 0.349602 0  0.7283849999999999 0.472798 0  0.229136 0.246478 0  0.807794 0.480346 0  0.709476 0.112786 0  0.275506 0.694991 0  0.771674 0.394419 0  0.449715 0.861802 0  0.419159 0.799696 0  0.674851 0.503139 0  0.280443 0.61016 0  0.572443 0.192538 0  0.393113 0.87525 0  0.405555 0.948428 0  0.330942 0.934103 0  0.540509 0.597101 0  0.312763 0.6689310000000001 0  0.254368 0.540179 0  0.595265 0.25915 0  0.606679 0.234099 0  0.657131 0.279138 0  0.722458 0.279478 0  0.333 0.308056 0  0.351529 0.246142 0  0.455714 0.7257940000000001 0  0.585239 0.295143 0  0.340062 0.72492 0  0.545593 0.293773 0  0.555449 0.545426 0  0.414311 0.737314 0  0.590854 0.502323 0  0.350507 0.368444 0  0.484423 0.625665 0  0.483899 0.674542 0  0.378137 0.317274 0  0.446416 0.646404 0  0.373532 0.347654 0  0.446876 0.619769 0  0.466106 0.666068 0  0.437545 0.609254 0  0.434988 0.565726 0  0.41462 0.656829 0  0.418803 0.556961 0  0.398425 0.327446 0  0.517803 0.310421 0  0.549516 0.322918 0  0.57701 0.842889 0  0.8291269999999999 0.773906 0  0.643235 0.684732 0  0.134281 0.207734 0  0.865997 0.055966 0  0.680959 0.723345 0  0.165229 0.8415550000000001 0  0.54558 0.959672 0  0.783726 0.656439 0  0.913315 0.595533 0  0.699439 0.860667 0  0.785839 0.125076 0  0.551673 0.037713 0  0.9200970000000001 0.223214 0  0.206406 0.299726 0  0.087064 0.596401 0  0.935644 0.394252 0  0.964557 0.252582 0  0.230124 0.928346 0  0.120579 0.271764 0  0.8572149999999999 0.524082 0  0.7670979999999999 0.5551469999999999 0  0.936094 0.507131 0  0.804064 0.59585 0  0.700565 0.608273 0  0.429773 0.174231 0  0.117746 0.727333 0  0.5389620000000001 0.730231 0  0.862761 0.359173 0  0.821444 0.284046 0  0.193552 0.35818 0  0.234923 0.505555 0  0.193209 0.421217 0  0.220144 0.755896 0  0.594015 0.131642 0  0.283813 0.195855 0  0.517519 0.213961 0  0.553509 0.639116 0  0.280391 0.378018 0  0.852183 0.436817 0  0.746983 0.197173 0  0.821806 0.221318 0  0.449853 0.828453 0  0.883758 0.453926 0  0.183484 0.589542 0  0.348384 0.129314 0  0.255254 0.838525 0  0.504849 0.798516 0  0.320344 0.863432 0  0.611669 0.525425 0  0.265864 0.804962 0  0.72056 0.521442 0  0.613372 0.6101220000000001 0  0.481262 0.881068 0  0.655778 0.191988 0  0.701921 0.196918 0  0.5658260000000001 0.5731810000000001 0  0.46914 0.240927 0  0.343219 0.173284 0  0.888786 0.278502 0  0.244113 0.6750930000000001 0  0.739546 0.417914 0  0.784023 0.355942 0  0.326805 0.265549 0  0.248616 0.6
[...]
<PointData  Vectors="f_21"> 
<DataArray  type="Float64"  Name="f_21"  NumberOfComponents="3" format="ascii">7.2811171334876146e-01 6.1870600622947247e-02 0.0000000000000000e+00  7.0988752194043825e-01 6.8469975800330138e-02 0.0000000000000000e+00  6.4827330175264009e-01 7.9750215014454867e-02 0.0000000000000000e+00  5.8925192699634432e-01 8.4989122771351344e-02 0.0000000000000000e+00  5.2967204468812179e-01 8.5235796378569720e-02 0.0000000000000000e+00  4.1625654760063102e-01 9.2727730444153944e-02 0.0000000000000000e+00  3.4050397792666015e-01 9.2899265403000059e-02 0.0000000000000000e+00  2.3968463258264103e-01 1.6186512978178874e-01 0.0000000000000000e+00  1.9142700268091353e-01 2.0284932832456679e-01 0.0000000000000000e+00  1.7390471476488145e-01 2.1284947332524046e-01 0.0000000000000000e+00  1.4611686353717748e-01 2.0756430646353460e-01 0.0000000000000000e+00  1.3092113619747855e-01 1.9192159662860758e-01 0.0000000000000000e+00  1.1178520231052187e-01 1.4478448934186705e-01 0.0000000000000000e+00  8.0010566822126247e-02 6.4893503851250603e-02 0.0000000000000000e+00  4.2253492980871693e-02 2.2854503724524050e-02 0.0000000000000000e+00  1.8863644741125316e-02 1.1191517030374510e-03 0.0000000000000000e+00  1.1422121074704672e-02 -1.6975881302208864e-02 0.0000000000000000e+00  1.9358127337339718e-02 -4.4981600764253039e-02 0.0000000000000000e+00  3.8106737936074622e-02 -7.9122404708728583e-02 0.0000000000000000e+00  6.9380440471827620e-02 -1.2128898839705471e-01 0.0000000000000000e+00  1.2709637411517891e-01 -1.7877059158077513e-01 0.0000000000000000e+00  1.7707994104712516e-01 -2.0306900156173949e-01 0.0000000000000000e+00  2.2791620270931631e-01 -1.9271744542611791e-01 0.0000000000000000e+00  3.7588290188409113e-01 -2.0828637908917241e-01 0.0000000000000000e+00  4.8672035375761002e-01 -2.3349924809471953e-01 0.0000000000000000e+00  5.7563363157254921e-01 -2.3603750205782448e-01 0.0000000000000000e+00  7.0534238840721619e-01 -2.3016406598186803e-01 0.0000000000000000e+00  7.6843489757847017e-01 -2.0202230725594902e-01 0.0000000000000000e+00  7.9514590725647971e-01 -1.7044593644045880e-01 0.0000000000000000e+00  8.0732979373691804e-01 -1.4681979540542606e-01 0.0000000000000000e+00  8.4313159600244170e-01 -1.4204357295656672e-01 0.0000000000000000e+00  9.0243084407951035e-01 -1.4611013618838228e-01 0.0000000000000000e+00  9.3255431974902181e-01 -1.4275093056911572e-01 0.0000000000000000e+00  9.4706431765777566e-01 -1.3094558103183349e-01 0.0000000000000000e+00  9.4954850325603490e-01 -1.2309700199038572e-01 0.0000000000000000e+00  9.4837923116464384e-01 -1.1932025482732610e-01 0.0000000000000000e+00  9.4742528917407309e-01 -1.1876135742902023e-01 0.0000000000000000e+00  9.4803620856713888e-01 -1.1832340256830268e-01 0.0000000000000000e+00  9.5562842437342721e-01 -1.2127900840227390e-01 0.0000000000000000e+00  9.6156685746096959e-01 -1.2145546594860601e-01 0.0000000000000000e+00  9.7102697473719624e-01 -1.1828636818776832e-01 0.0000000000000000e+00  9.7542434472317452e-01 -1.1223593177722554e-01 0.0000000000000000e+00  9.7593224811632229e-01 -1.0661868314658594e-01 0.0000000000000000e+00  9.7327313851583031e-01 -1.0162904809133176e-01 0.0000000000000000e+00  9.6803711638479595e-01 -9.8859528731571708e-02 0.0000000000000000e+00  9.6063624956694571e-01 -1.0276097574312480e-01 0.0000000000000000e+00  9.5342950623779776e-01 -1.1196727915889769e-01 0.0000000000000000e+00  9.5825224668385056e-01 -1.2548208022808965e-01 0.0000000000000000e+00  9.7643291054526138e-01 -1.3689858536502444e-01 0.0000000000000000e+00  9.9985812105795435e-01 -1.3881972764317743e-01 0.0000000000000000e+00  1.0282746092190398e+00 -1.3730018066134211e-01 0.0000000000000000e+00  1.0548704026376705e+00 -1.3459195570641549e-01 0.0000000000000000e+00  1.0769773713029385e+00 -1.2594783351990360e-01 0.0000000000000000e+00  1.0883631858884841e+00 -1.1262294638936866e-01 0.0000000000000000e+00  1.1016664000853158e+00 -9.4354602197315882e-02 0.0000000000000000e+00  1.1149575236396370e+00 -7.7770546557961867e-02 0.0000000000000000e+00  1.1271808931990808e+00 -6.4332873491154532e-02 0.0000000000000000e+00  1.1452327599151402e+00 -4.8253935594258605e-02 0.0000000000000000e+00  1.1640567541704196e+00 -2.9612418548549891e-02 0.0000000000000000e+00  1.1747566897944404e+00 -1.0094103249391922e-02 0.0000000000000000e+00  1.1819880548264308e+00 1.2558590285787314e-02 0.0000000000000000e+00  1.1812555578708037e+00 3.1035772828578972e-02 0.0000000000000000e+00  1.1733042768571169e+00 5.0784617442811410e-02 0.0000000000000000e+00  1.1620296849188421e+00 6.1775228561498897e-02 0.0000000000000000e+00  1.1585881363948438e+00 6.4800665440881283e-02 0.0000000000000000e+00  1.1463978823040326e+00 7.9116329778496072e-02 0.0000000000000000e+00  1.1250268059766728e+00 9.0541836457222857e-02 0.0000000000000000e+00  1.0647095824097508e+00 1.0597673703058003e-01 0.0000000000000000e+00  1.0082952303491544e+00 1.1403041659845528e-01 0.0000000000000000e+00  9.4728475973986348e-01 1.0712427249400075e-01 0.0000000000000000e+00  9.1255095327591706e-01 9.9221733653388378e-02 0.0000000000000000e+00  8.7858853262863279e-01 9.5227285754306903e-02 0.0000000000000000e+00  8.3712270081028606e-01 9.0494120139693129e-02 0.0000000000000000e+00  7.8065143591254116e-01 7.8852797057164511e-02 0.0000000000000000e+00  7.4748836909435701e-01 6.6564736726937093e-02 0.0000000000000000e+00  7.3655005020118047e-01 6.1447951301528775e-02 0.0000000000000000e+00  7.2914539925808530e-01 6.1422450983980519e-02 0.0000000000000000e+00  1.1066738946349188e+00 -1.0024923442182862e-01 0.0000000000000000e+00  1.1451704674675305e+00 1.7520901577914794e-01 0.0000000000000000e+00  0.0000000000000000e+00 0.0000000000000000e+00 0.0000000000000000e+00  0.0000000000000000e+00 0.0000000000000000e+00 0.0000000000000000e+00  7.2708526190347100e-01 6.2544209744156323e-02 0.0000000000000000e+00  7.2513045793878239e-01 6.3468815185321797e-02 0.0000000000000000e+00  7.2199142291566742e-01 6.4693785238024937e-02 0.0000000000000000e+00  7.1722311202911160e-01 6.6358744985297480e-02 0.0000000000000000e+00  7.0216182802152816e-01 7.0324461317223974e-02 0.0000000000000000e+00  6.9090249374032331e-01 7.2749390118533777e-02 0.0000000000000000e+00  6.7438832459524156e-01 7.5783490884488533e-02 0.0000000000000000e+00  6.2302644162426335e-01 8.2699144911519126e-02 0.0000000000000000e+00  4.8992769022811872e-01 8.6202836569785640e-02 0.0000000000000000e+00  4.5484937025267047e-01 8.8632276201545970e-02 0.0000000000000000e+00  2.9800428887163921e-01 1.2366521462384582e-01 0.0000000000000000e+00  2.6701056945852614e-01 1.4282664168313108e-01 0.0000000000000000e+00  2.1792020931532402e-01 1.7841898491346550e-01 0.0000000000000000e+00  2.0276018953211233e-01 1.9195015998501605e-01 0.0000000000000000e+00  1.6121684868086991e-01 2.1043962305903152e-01 0.0000000000000000e+00  1.2587884652295572e-01 1.8009852458414466e-01 0.0000000000000000e+00  1.1950008628393730e-01 1.6473238476438531e-01 0.0000000000000000e+00  1.0230511307823878e-01 1.2285843628311784e-01 0.0000000000000000e+00  9.1811024157386886e-02 9.6179391120878407e-02 0.0000000000000000e+00  6.1716401974239721e-02 4.4800350503684076e-02 0.0000000000000000e+00  1.3946439494306134e-02 -3.0717951936526246e-02 0.0000000000000000e+00  9.8778364363363236e-02 -1.5300850286325998e-01 0.0000000000000000e+00  2.7438018006879589e-01 -2.0349001911798947e-01 0.0000000000000000e+00  3.2190581222692960e-01 -2.1026637450427618e-01 0.0000000000000000e+00  6.5054301114406454e-01 -2.3956580109913084e-01 0.0000000000000000e+00  7.3705910477703984e-01 -2.1727527614257752e-01 0.0000000000000000e+00  8.1821869129795222e-01 -1.3807368492207781e-01 0.0000000000000000e+00  9.4148315707681796e-01 -1.3669554367771036e-01 0.0000000000000000e+00  9.4889975456888742e-01 -1.2059454438888725e-01 0.0000000000000000e+00  9.4726132733028057e-01 -1.1839793229753086e-01 0.0000000000000000e+00  9.4957216182094639e-01 -1.1873017413495740e-01 0.0000000000000000e+00  9.5248971466173959e-01 -1.2004266502060662e-01 0.0000000000000000e+00  9.6561395180194520e-01 -1.2021989244369991e-01 0.0000000000000000e+00  9.6495870223288849e-01 -1.0002038920940393e-01 0.0000000000000000e+00  9.6479033582271634e-01 -1.3166812049886539e-01 0.0000000000000000e+00  1.0677989957460661e+00 -1.2978865792605063e-01 0.0000000000000000e+00  1.1089561351239055e+00 -8.4648765960116543e-02 0.0000000000000000e+00  1.1370588882711454e+00 -5.5855117200380250e-02 0.0000000000000000e+00  1.1790418151182454e+00 -4.9310612046508733e-04 0.0000000000000000e+00  1.1776687774613239e+00 4.2831142872933957e-02 0.0000000000000000e+00  1.1668741734822425e+00 5.8280403928252747e-02 0.0000000000000000e+00  1.1540545038486583e+00 7.0212376172249846e-02 0.0000000000000000e+00  1.1022939569966450e+00 1.0225328513904967e-01 0.0000000000000000e+00  9.7791807659384156e-01 1.1050196479955965e-01 0.0000000000000000e+00  8.0641876658988576e-01 8.4369009238041581e-02 0.0000000000000000e+00  7.5921275677307520e-01 7.1641804258304617e-02 0.0000000000000000e+00  7.4030182675846812e-01 6.3171844949834008e-02 0.0000000000000000e+00  7.3433860667417883e-01 6.0981856044056808e-02 0.0000000000000000e+00  7.3216583198953022e-01 6.1036688092600162e-02 0.0000000000000000e+00  7.3045062343903333e-01 6.1199786906852918e-02 0.0000000000000000e+00  1.1331032251882525e+00 -5.8174242003827703e-02 0.0000000000000000e+00  1.1962075755484107e+00 -1.3468308506567179e-02 0.0000000000000000e+00  1.2703183850553244e+00 1.4987852870658255e-02 0.0000000000000000e+00  1.3184650103945208e+00 3.0394449064048434e-02 0.0000000000000000e+00  1.3379487705675253e+00 2.9001645950851699e-02 0.0000000000000000e+00  1.3149461904628967e+00 2.2914278031095574e-02 0.0000000000000000e+00  1.2592846946980563e+00 3.8943352747429626e-02 0.0000000000000000e+00  1.2070672126051678e+00 8.3384265242291686e-02 0.0000000000000000e+00  1.1710011699557965e+00 1.3503802747387883e-01 0.0000000000000000e+00  1.0530798651435529e+00 1.9776386157284223e-01 0.0000000000000000e+00  9.6434113310147784e-01 2.1211458404400912e-01 0.0000000000000000e+00  8.8035523357198864e-01 2.1443432022050832e-01 0.0000000000000000e+00  7.9487760975275423e-01 1.9891116885370586e-01 0.0000000000000000e+00  6.9837902444171385e-01 1.7216661968194624e-01 0.0000000000000000e+00  5.9186850370759458e-01 1.4727819303776182e-01 0.0000000000000000e+00  4.7311585994366018e-01 1.1740782746442435e-01 0.0000000000000000e+00  3.3035674786959057e-01 9.0812294673764310e-02 0.0000000000000000e+00  1.7576893135408792e-01 6.6760654122755461e-02 0.0000000000000000e+00  1.8319119419827934e-01 -6.0445619393191742e-02 0.0000000000000000e+00  3.5117730486160659e-01 -1.0207055678419431e-01 0.0000000000000000e+00  4.8653052734608337e-01 -1.7690625233788129e-01 0.0000000000000000e+00  5.5727175367738824e-01 -2.3790806123663882e-01 0.0000000000000000e+00  6.1254655220235943e-01 -2.2125709470487370e-01 0.0000000000000000e+00  7.0143749585503601e-01 -1.6619587842786812e-01 0.0000000000000000e+00  8.1170409375158947e-01 -1.2829647434723782e-01 0.0000000000000000e+00  9.1982721134998624e-01 -1.1771167857104207e-01 0.0000000000000000e+00  1.0157298012376852e+00 -1.1534180698464110e-01 0.0000000000000000e+00  0.0000000000000000e+00 0.0000000000000000e+00 0.0000000000000000e+00  0.0000000000000000e+00 0.0000000000000000e+00 0.0000000000000000e+00  0.0000000000000000e+00 0.0000000000000000e+00 0.0000000000000000e+00  0.0000000000000000e+00 0.0000000000000000e+00 0.0000000000000000e+00  0.0000000000000000e+00 0.0000000000000000e+00 0.0000000000000000e+00  0.0000000000000000e+00 0.0000000000000000e+00 0.0000000000000000e+00  0.0000000000000000e+00 0.0000000000000000e+00 0.0000000000000000e+00  0.0000000000000000e+00 0.0000000000000000e+00 0.0000000000000000e+00  0.0000000000000000e+00 0.0000000000000000e+00 0.0000000000000000e+00  1.0939835351201173e+00 -1.0423572527612432e-01 0.0000000000000000e+00  1.0127324869804943e+00 -5.3116276751108353e-02 0.0000000000000000e+00  1.3725937693399246e-01 2.9210357561385892e-02 0.0000000000000000e+00  1.6866708541338432e-01 -3.3232501532395237e-02 0.0000000000000000e+00  9.0495223039776307e-01 1.6084614078878393e-01 0.0000000000000000e+00  7.0539479543897710e-01 1.3208488900165688e-01 0.0000000000000000e+00  1.2285712593608189e+00 3.6745416840860447e-02 0.0000000000000000e+00  6.7065324125701054e-01 -1.7440183392990377e-01 0.0000000000000000e+00  1.8871532144978560e-02 1.0531242575270210e-02 0.0000000000000000e+00  4.2185932877927235e-01 7.1323201974485745e-02 0.0000000000000000e+00  4.9414239125496895e-01 -1.9328292780915649e-01 0.0000000000000000e+00  8.7587614324284080e-02 1.7231037184783516e-02 0.0000000000000000e+00  1.1030345954073839e-01 -1.6613194421168515e-02 0.0000000000000000e+00  1.0595761357345468e+00 -9.2030963639372257e-02 0.0000000000000000e+00  1.0952422638712325e+00 1.7243847800702100e-01 0.0000000000000000e+00  1.7222850587166327e-01 8.6662545567189123e-02 0.0000000000000000e+00  9.5554928233446990e-01 -1.3608716081730959e-01 0.0000000000000000e+00  9.5005603861510279e-01 -1.2305576660046531e-01 0.0000000000000000e+00  9.5878549640923028e-01 -1.1228920207280989e-01 0.0000000000000000e+00  1.0588641807624470e+00 -1.0584975804968827e-01 0.0000000000000000e+00  1.6328848755906536e-01 1.7491388702088587e-01 0.0000000000000000e+00  7.2654011449041489e-01 6.2320177909949315e-02 0.0000000000000000e+00  4.7474671537479467e-02 -4.1405236224499674e-02 0.0000000000000000e+00  1.0077434602100275e+00 -7.5266415917922574e-02 0.0000000000000000e+00  8.1882279867182439e-01 -1.0830987008163467e-01 0.0000000000000000e+00  1.1694946213889659e+00 -3.7537461837199222e-03 0.0000000000000000e+00  1.0281416881480046e+00 -6.2681961583877302e-02 0.0000000000000000e+00  1.0839466907360049e+00 9.8712835086213591e-02 0.0000000000000000e+00  2.3854661280527992e-01 1.5930667643682977e-02 0.0000000000000000e+00  3.1170331465745837e-01 -5.2802199725956740e-02 0.0000000000000000e+00  6.1001854124459898e-01 1.3085111715410166e-01 0.0000000000000000e+00  1.0144710394337910e+00 1.7139969543138048e-01 0.0000000000000000e+00  6.1893542420040193e-02 1.7126036217043113e-02 0.0000000000000000e+00  8.1156004385189806e-01 1.6901768199053305e-01 0.0000000000000000e+00  8.4810111430136315e-01 1.3488571025043444e-01 0.0000000000000000e+00  2.1434873981688554e-01 -9.1205703370663901e-03 0.0000000000000000e+00  2.4093549498297331e-01 -3.6012304517640426e-02 0.0000000000000000e+00  5.3737065097163632e-02 3.2697201276500616e-02 0.0000000000000000e+00  6.7692327781132766e-02 -3.0737234036015405e-02 0.0000000000000000e+00  5.8197445730350650e-01 -2.1964596390825952e-01 0.0000000000000000e+00  1.2799168680587050e+00 3.5964657304971635e-02 0.0000000000000000e+00  7.3093736057168446e-01 9.9511150320041195e-02 0.0000000000000000e+00  1.1947219512091980e+00 4.8610556646437562e-02 0.0000000000000000e+00  1.1626786522192547e+00 1.0200708965359196e-02 0.0000000000000000e+00  6.8469855127650237e-01 -1.6539496311827845e-01 0.0000000000000000e+00  1.4686663876756413e-02 2.5382794533489695e-03 0.0000000000000000e+00  4.2964556632891515e-01 8.2673773164186712e-02 0.0000000000000000e+00  5.2148166785909045e-01 -2.1214608448464539e-01 0.0000000000000000e+00  1.1983216202125038e-01 6.6655889241889477e-02 0.0000000000000000e+00  1.0447798554461156e+00 -1.1606596844033519e-01 0.0000000000000000e+00  1.7597581251216657e-01 1.3440755775420427e-01 0.0000000000000000e+00  9.7734205552057496e-01 -1.2610451561567615e-01 0.0000000000000000e+00  9.3778248400514841e-01 -1.2705545214666825e-01 0.0000000000000000e+00  9.5045573086949231e-01 -1.1556908548061619e-01 0.0000000000000000e+00  9.5415898686974177e-01 -1.3182446177582965e-01 0.0000000000000000e+00  9.6648998494627836e-01 -1.0820981244051935e-01 0.0000000000000000e+00  1.0804879996798895e+00 -1.0105681151071694e-01 0.0000000000000000e+00  9.4744847365130525e-01 -1.2743215703117455e-01 0.0000000000000000e+00  1.0677037335247417e+00 -1.1707498350833931e-01 0.0000000000000000e+00  9.4766688432584967e-01 -1.1946731751045428e-01 0.0000000000000000e+00  9.6179915124361615e-01 -1.1683958786782765e-01 0.0000000000000000e+00  9.5675001305620422e-01 -1.0920394969183099e-01 0.0000000000000000e+00  1.4267539365489385e-01 1.6388626262381020e-01 0.0000000000000000e+00  1.7365288786270403e-01 1.9300207170822897e-01 0.0000000000000000e+00  1.4917984502791623e-01 1.8878551647187095e-01 0.0000000000000000e+00  7.1997158375819659e-01 6.4321349728375291e-02 0.0000000000000000e+00  7.2902882489335852e-01 6.1772042714991357e-02 0.0000000000000000e+00  7.2684369598971221e-01 6.2206970150164291e-02 0.0000000000000000e+00  8.9893606704152729e-01 -8.8607880220255550e-02 0.0000000000000000e+00  1.1321463421332816e+00 -3.5452387954760481e-02 0.0000000000000000e+00  3.9481685949379050e-02 3.5348736997483345e-02 0.0000000000000000e+00  1.2230049011313884e+00 4.8253464686835688e-02 0.0000000000000000e+00  1.3005195621980783e-01 7.5884542558709456e-03 0.0000000000000000e+00  9.0206481459996302e-01 -9.3194264083563391e-02 0.0000000000000000e+00  1.2523218277859591e+00 2.5871367627896755e-02 0.0000000000000000e+00  1.1022288219312697e+00 -2.1131364713984652e-02 0.0000000000000000e+00  3.5501966536536644e-01 6.4594640950044108e-02 0.0000000000000000e+00  1.9750154463380503e-02 -1.9615211162484304e-02 0.0000000000000000e+00  3.0463462032355038e-01 1.7225212102701826e-02 0.0000000000000000e+00  4.8791777336069285e-02 -3.9365549239191673e-02 0.0000000000000000e+00  1.0879737652856731e+00 1.3084798536496878e-01 0.0000000000000000e+00  7.2676065393023925e-01 -1.5028800491161592e-01 0.0000000000000000e+00  1.0138058327612769e-01 -8.6281556382965686e-03 0.0000000000000000e+00  6.1046899497120743e-01 1.0955365145116283e-01 0.0000000000000000e+00  1.0752254533238073e+00 -7.2120013583194545e-02 0.0000000000000000e+00  6.8838572652463770e-01 1.5286639379195974e-01 0.0000000000000000e+00  4.0220334838829036e-01 -1.1916410584998162e-01 0.0000000000000000e+00  9.9129322648938767e-01 1.1532318852651867e-01 0.0000000000000000e+00  9.1647053683215474e-01 1.9661056886059106e-01 0.0000000000000000e+00  5.2344757478774406e-01 1.1318498626489543e-01 0.0000000000000000e+00  1.9229669564450748e-02 -1.5902114580542016e-02 0.0000000000000000e+00  9.9116515881289102e-01 -9.5622306845709701e-02 0.0000000000000000e+00  1.0094224923090314e+00 -8.9346083048666272e-02 0.0000000000000000e+00  8.2936474752567366e-02 -1.7095077605429523e-02 0.0000000000000000e+00  4.3196110656659042e-01 -1.4038987786448159e-01 0.0000000000000000e+00  5.7123986796477488e-01 -2.1412409876042279e-01 0.0000000000000000e+00  1.0833149008550227e+00 -5.7019391861358647e-02 0.0000000000000000e+00  1.7228292591538502e-01 2.7870984867829861e-02 0.0000000000000000e+00  9.3904991550359321e-02 -4.2747152266821312e-02 0.0000000000000000e+00  1.1945738781762685e+00 4.1464290000170427e-02 0.0000000000000000e+00  7.7416015051463072e-01 1.2796637330572280e-01 0.0000000000000000e+00  2.6716556925231758e-02 -4.5536500060400177e-03 0.0000000000000000e+00  1.2447144611633702e-01 1.6112895087982148e-02 0.0000000000000000e+00  8.4656874938075244e-01 1.5952637282216339e-01 0.0000000000000000e+00  8.0564226785395732e-01 1.0669369557876929e-01 0.0000000000000000e+00  8.8633729760602198e-01 1.2309862749640509e-01 0.0000000000000000e+00  5.8771659027111300e-01 -2.2733957988029324e-01 0.0000000000000000e+00  1.1163060865580650e+00 6.0946720005374988e-02 0.0000000000000000e+00  5.2832205625020279e-01 -2.1490746038471992e-01 0.0000000000000000e+00  2.3818071631942297e-01 3.2014367742369557e-02 0.0000000000000000e+00  2.3828967773615858e-01 -9.1037244495075997e-02 0.0000000000000000e+00  7.3612403577664287e-01 7.8845914432956701e-02 0.0000000000000000e+00  7.2397955249794088e-01 -1.6255693107219416e-01 0.0000000000000000e+00  4.8131129470533718e-01 1.0673144246212955e-01 0.0000000000000000e+00  1.0888158556939853e+00 -8.5671840873703622e-02 0.0000000000000000e+00  1.3656740789858715