<?xml version="1.0"?>
<VTKFile type="UnstructuredGrid"  version="0.1"  >
<UnstructuredGrid>
<Piece  NumberOfPoints="2868" NumberOfCells="5400">
<Points>
<DataArray  type="Float64"  NumberOfComponents="3"  format="ascii">0.534923 0.326073 0  0.510642 0.314196 0  0.466125 0.293082 0  0.436448 0.281205 0  0.409468 0.275927 0  0.368998 0.270648 0  0.35281 0.275927 0  0.381139 0.302319 0  0.405421 0.326073 0  0.410817 0.33531 0  0.408119 0.349826 0  0.400025 0.357744 0  0.375743 0.368301 0  0.329878 0.392055 0  0.297502 0.432963 0  0.282663 0.476511 0  0.285361 0.524018 0  0.298851 0.572845 0  0.317737 0.6045160000000001 0  0.337972 0.6361869999999999 0  0.360904 0.674457 0  0.368998 0.69953 0  0.359555 0.7219640000000001 0  0.360904 0.757594 0  0.370347 0.766831 0  0.381139 0.762872 0  0.390582 0.741758 0  0.404072 0.720644 0  0.424307 0.707448 0  0.447239 0.702169 0  0.480964 0.704808 0  0.479615 0.6889729999999999 0  0.468823 0.675776 0  0.447239 0.6691780000000001 0  0.428354 0.6691780000000001 0  0.410817 0.6639 0  0.404072 0.653343 0  0.395978 0.628269 0  0.387884 0.59132 0  0.389233 0.576804 0  0.397327 0.557009 0  0.410817 0.547772 0  0.424307 0.546452 0  0.437797 0.55305 0  0.44589 0.5662469999999999 0  0.441843 0.582082 0  0.439145 0.5979179999999999 0  0.449937 0.609795 0  0.468823 0.603196 0  0.479615 0.59 0  0.489058 0.570205 0  0.494454 0.546452 0  0.505246 0.522699 0  0.522783 0.509502 0  0.55246 0.494986 0  0.586185 0.484429 0  0.615863 0.48047 0  0.64554 0.473872 0  0.6671240000000001 0.461995 0  0.683312 0.451438 0  0.696802 0.435603 0  0.703547 0.417128 0  0.7116400000000001 0.393374 0  0.7183850000000001 0.37226 0  0.7251300000000001 0.364342 0  0.739969 0.353785 0  0.7453650000000001 0.344548 0  0.7453650000000001 0.327393 0  0.737271 0.318155 0  0.7183850000000001 0.316835 0  0.7008490000000001 0.319475 0  0.677916 0.318155 0  0.650936 0.316835 0  0.610467 0.318155 0  0.57944 0.324753 0  0.559205 0.328712 0  0.5389699999999999 0.326073 0  1 1 0  1 0 0  0 0 0  0 1 0  0.532238 0.32476 0  0.528748 0.323052 0  0.52421 0.320833 0  0.518311 0.317947 0  0.503447 0.310783 0  0.494093 0.306347 0  0.481933 0.30058 0  0.452151 0.28749 0  0.392327 0.273691 0  0.379141 0.271971 0  0.360474 0.283066 0  0.369797 0.291752 0  0.391424 0.31238 0  0.399335 0.32012 0  0.40958 0.341964 0  0.393939 0.36039 0  0.386028 0.36383 0  0.364248 0.374254 0  0.349304 0.381994 0  0.315801 0.409841 0  0.292986 0.551616 0  0.350934 0.657818 0  0.360127 0.737055 0  0.360566 0.748664 0  0.385245 0.753692 0  0.396447 0.732578 0  0.466301 0.703661 0  0.459439 0.672908 0  0.418442 0.666195 0  0.400553 0.642441 0  0.39255 0.612619 0  0.389913 0.60058 0  0.392752 0.568197 0  0.444131 0.573132 0  0.458149 0.606926 0  0.5005540000000001 0.533026 0  0.571522 0.489019 0  0.632637 0.476741 0  0.689177 0.444553 0  0.708121 0.403702 0  0.715453 0.38144 0  0.732406 0.359166 0  0.7453650000000001 0.337089 0  0.72906 0.317581 0  0.629879 0.317522 0  0.59293 0.321884 0  0.568003 0.326991 0  0.55202 0.327775 0  0.546493 0.327054 0  0.542241 0.326499 0  1 0.9 0  1 0.8 0  1 0.7 0  1 0.6 0  1 0.5 0  1 0.4 0  1 0.3 0  1 0.2 0  1 0.1 0  0.9 0 0  0.8 0 0  0.7 0 0  0.6 0 0  0.5 0 0  0.4 0 0  0.3 0 0  0.2 0 0  0.1 0 0  0.1 1 0  0.2 1 0  0.3 1 0  0.4 1 0  0.5 1 0  0.6 1 0  0.7 1 0  0.8 1 0  0.9 1 0  0 0.1 0  0 0.2 0  0 0.3 0  0 0.4 0  0 0.5 0  0 0.6 0  0 0.7 0  0 0.8 0  0 0.9 0  0.535686 0.5031910000000001 0  0.753987 0.733359 0  0.167145 0.741436 0  0.173378 0.257204 0  0.733497 0.159862 0  0.554096 0.15788 0  0.849187 0.479053 0  0.488793 0.838452 0  0.138507 0.5592 0  0.30686 0.154944 0  0.348904 0.890523 0  0.058006 0.065099 0  0.06984899999999999 0.937917 0  0.93633 0.939704 0  0.934625 0.053613 0  0.343397 0.333452 0  0.473272 0.639943 0  0.433266 0.638072 0  0.415174 0.58269 0  0.533435 0.545042 0  0.390848 0.340652 0  0.53655 0.320242 0  0.127966 0.393775 0  0.83861 0.850455 0  0.635242 0.8551299999999999 0  0.852158 0.633441 0  0.653427 0.626848 0  0.861226 0.24292 0  0.166128 0.12976 0  0.216875 0.8698709999999999 0  0.458305 0.11179 0  0.84446 0.101633 0  0.202024 0.642528 0  0.644825 0.115855 0  0.671342 0.218358 0  0.251354 0.286186 0  0.262388 0.75153 0  0.063044 0.751571 0  0.068189 0.242962 0  0.435781 0.9053949999999999 0  0.934144 0.451133 0  0.568393 0.237622 0  0.814984 0.395506 0  0.752951 0.517227 0  0.456254 0.780699 0  0.073352 0.531116 0  0.337731 0.206071 0  0.363213 0.960371 0  0.330742 0.363592 0  0.516613 0.55705 0  0.369057 0.332992 0  0.500926 0.617309 0  0.498004 0.665534 0  0.412142 0.61178 0  0.454233 0.6366039999999999 0  0.422782 0.567496 0  0.541193 0.5214800000000001 0  0.439761 0.65557 0  0.5163 0.533672 0  0.414775 0.64562 0  0.40073 0.576135 0  0.430362 0.5880339999999999 0  0.385432 0.351492 0  0.400298 0.335397 0  0.398325 0.348194 0  0.528702 0.314885 0  0.540814 0.322334 0  0.534477 0.322953 0  0.619095 0.743583 0  0.885162 0.737972 0  0.08076 0.668849 0  0.90734 0.36634 0  0.09468699999999999 0.868937 0  0.759838 0.912152 0  0.901518 0.540898 0  0.747285 0.607479 0  0.229182 0.071641 0  0.06915399999999999 0.450091 0  0.244775 0.203309 0  0.076534 0.331755 0  0.897847 0.167826 0  0.578909 0.911415 0  0.07713299999999999 0.146341 0  0.477215 0.203448 0  0.922631 0.869341 0  0.517415 0.074785 0  0.297026 0.827793 0  0.7832710000000001 0.246505 0  0.74519 0.061079 0  0.36033 0.069068 0  0.210313 0.475228 0  0.859426 0.928758 0  0.5745479999999999 0.609182 0  0.243069 0.383398 0  0.283099 0.934598 0  0.417416 0.843141 0  0.643942 0.553164 0  0.112687 0.079336 0  0.281357 0.658386 0  0.765043 0.436177 0  0.611361 0.198486 0  0.234496 0.58911 0  0.206479 0.702638 0  0.679608 0.155818 0  0.62682 0.259978 0  0.690538 0.264164 0  0.448938 0.956308 0  0.808154 0.328403 0  0.379583 0.91913 0  0.308083 0.297769 0  0.312358 0.730249 0  0.563101 0.278576 0  0.435597 0.746198 0  0.385475 0.225229 0  0.572248 0.518034 0  0.357864 0.35422 0  0.497647 0.641694 0  0.458101 0.655768 0  0.360474 0.310727 0  0.467038 0.620139 0  0.47798 0.659909 0  0.41102 0.628072 0  0.48324 0.609015 0  0.427544 0.617941 0  0.388633 0.328253 0  0.405336 0.599404 0  0.408351 0.565178 0  0.42395 0.600985 0  0.431562 0.576523 0  0.424905 0.6551979999999999 0  0.398064 0.58782 0  0.427739 0.557934 0  0.5192909999999999 0.303443 0  0.53142 0.320293 0  0.5449000000000001 0.323642 0  0.537166 0.323513 0  0.153974 0.920841 0  0.9181859999999999 0.67343 0  0.759946 0.820588 0  0.5375259999999999 0.783091 0  0.816532 0.545843 0  0.813991 0.178083 0  0.836774 0.702023 0  0.149815 0.318856 0  0.662287 0.923338 0  0.680146 0.791192 0  0.708961 0.663172 0  0.9372779999999999 0.287318 0  0.574622 0.6881660000000001 0  0.5894740000000001 0.076262 0  0.502822 0.926683 0  0.222269 0.811068 0  0.380457 0.164786 0  0.15321 0.684154 0  0.458063 0.051413 0  0.161702 0.056026 0  0.199351 0.198818 0  0.298946 0.09553200000000001 0  0.902465 0.795949 0  0.121139 0.791477 0  0.906269 0.112287 0  0.056109 0.822332 0  0.512172 0.13237 0  0.940964 0.741805 0  0.888887 0.408777 0  0.354543 0.825964 0  0.808736 0.068638 0  0.068507 0.394071 0  0.719105 0.563843 0  0.247287 0.149664 0  0.293062 0.237128 0  0.240524 0.434997 0  0.141255 0.623289 0  0.945202 0.160621 0  0.502914 0.247629 0  0.144669 0.480811 0  0.665025 0.060817 0  0.728047 0.224344 0  0.861995 0.313312 0  0.200068 0.534235 0  0.253262 0.965623 0  0.893804 0.49307 0  0.604391 0.572456 0  0.947088 0.345347 0  0.439372 0.227307 0  0.629847 0.159823 0  0.273405 0.880181 0  0.302744 0.776823 0  0.781502 0.295365 0  0.275342 0.349602 0  0.7283849999999999 0.472798 0  0.229136 0.246478 0  0.807794 0.480346 0  0.709476 0.112786 0  0.275506 0.694991 0  0.771674 0.394419 0  0.449715 0.861802 0  0.419159 0.799696 0  0.674851 0.503139 0  0.280443 0.61016 0  0.572443 0.192538 0  0.393113 0.87525 0  0.405555 0.948428 0  0.330942 0.934103 0  0.540509 0.597101 0  0.312763 0.6689310000000001 0  0.254368 0.540179 0  0.595265 0.25915 0  0.606679 0.234099 0  0.657131 0.279138 0  0.722458 0.279478 0  0.333 0.308056 0  0.351529 0.246142 0  0.455714 0.7257940000000001 0  0.585239 0.295143 0  0.340062 0.72492 0  0.545593 0.293773 0  0.555449 0.545426 0  0.414311 0.737314 0  0.590854 0.502323 0  0.350507 0.368444 0  0.484423 0.625665 0  0.483899 0.674542 0  0.378137 0.317274 0  0.446416 0.646404 0  0.373532 0.347654 0  0.446876 0.619769 0  0.466106 0.666068 0  0.437545 0.609254 0  0.434988 0.565726 0  0.41462 0.656829 0  0.418803 0.556961 0  0.398425 0.327446 0  0.517803 0.310421 0  0.549516 0.322918 0  0.57701 0.842889 0  0.8291269999999999 0.773906 0  0.643235 0.684732 0  0.134281 0.207734 0  0.865997 0.055966 0  0.680959 0.723345 0  0.165229 0.8415550000000001 0  0.54558 0.959672 0  0.783726 0.656439 0  0.913315 0.595533 0  0.699439 0.860667 0  0.785839 0.125076 0  0.551673 0.037713 0  0.9200970000000001 0.223214 0  0.206406 0.299726 0  0.087064 0.596401 0  0.935644 0.394252 0  0.964557 0.252582 0  0.230124 0.928346 0  0.120579 0.271764 0  0.8572149999999999 0.524082 0  0.7670979999999999 0.5551469999999999 0  0.936094 0.507131 0  0.804064 0.59585 0  0.700565 0.608273 0  0.429773 0.174231 0  0.117746 0.727333 0  0.5389620000000001 0.730231 0  0.862761 0.359173 0  0.821444 0.284046 0  0.193552 0.35818 0  0.234923 0.505555 0  0.193209 0.421217 0  0.220144 0.755896 0  0.594015 0.131642 0  0.283813 0.195855 0  0.517519 0.213961 0  0.553509 0.639116 0  0.280391 0.378018 0  0.852183 0.436817 0  0.746983 0.197173 0  0.821806 0.221318 0  0.449853 0.828453 0  0.883758 0.453926 0  0.183484 0.589542 0  0.348384 0.129314 0  0.255254 0.838525 0  0.504849 0.798516 0  0.320344 0.863432 0  0.611669 0.525425 0  0.265864 0.804962 0  0.72056 0.521442 0  0.613372 0.6101220000000001 0  0.481262 0.881068 0  0.655778 0.191988 0  0.701921 0.196918 0  0.5658260000000001 0.5731810000000001 0  0.46914 0.240927 0  0.343219 0.173284 0  0.888786 0.278502 0  0.244113 0.6750930000000001 0  0.739546 0.417914 0  0.784023 0.355942 0  0.326805 0.265549 0  0.248616 0.6
[...]
<PointData  Vectors="f_21"> 
<DataArray  type="Float64"  Name="f_21"  NumberOfComponents="3" format="ascii">1.4494055236544603e+00 4.2659896719589901e-01 0.0000000000000000e+00  1.3927804236036987e+00 4.5845965064365218e-01 0.0000000000000000e+00  1.2196621447366891e+00 5.0490278111370479e-01 0.0000000000000000e+00  1.0683491241917387e+00 5.1620219216722485e-01 0.0000000000000000e+00  9.2625408510325224e-01 5.0516162912750917e-01 0.0000000000000000e+00  6.8975805694387349e-01 4.7563796669892583e-01 0.0000000000000000e+00  5.5004165610148670e-01 4.3716454355076784e-01 0.0000000000000000e+00  3.8490258901071028e-01 5.5231515554228361e-01 0.0000000000000000e+00  2.9323615896383282e-01 6.4181990063230876e-01 0.0000000000000000e+00  2.5739277273553629e-01 6.6304928156407683e-01 0.0000000000000000e+00  2.0015372884537894e-01 6.5261609057292813e-01 0.0000000000000000e+00  1.6834069911964475e-01 6.2031196749372131e-01 0.0000000000000000e+00  1.2645601326681391e-01 5.1938326861093276e-01 0.0000000000000000e+00  5.5688026929407712e-02 3.1641695128903585e-01 0.0000000000000000e+00  -1.8467832353555525e-02 1.5469219312602137e-01 0.0000000000000000e+00  -5.3074222368336192e-02 2.8133759419136727e-02 0.0000000000000000e+00  -4.9541954294265250e-02 -8.9688769706196311e-02 0.0000000000000000e+00  -1.8411026034403526e-02 -2.1793464870765344e-01 0.0000000000000000e+00  2.8297037945203187e-02 -3.3202321925491340e-01 0.0000000000000000e+00  9.9129186632330960e-02 -4.4846447712545878e-01 0.0000000000000000e+00  2.2000406171184309e-01 -5.8380825202066045e-01 0.0000000000000000e+00  3.1837424868961656e-01 -6.3607991566291699e-01 0.0000000000000000e+00  4.1332454283811521e-01 -6.2521732845522282e-01 0.0000000000000000e+00  7.0187984749398535e-01 -6.9404866128549203e-01 0.0000000000000000e+00  9.4030948970069039e-01 -7.7535493141282497e-01 0.0000000000000000e+00  1.1378353808861570e+00 -8.0110134187548609e-01 0.0000000000000000e+00  1.4450071239968272e+00 -7.9968178347738161e-01 0.0000000000000000e+00  1.6033816636473093e+00 -7.3658281552187610e-01 0.0000000000000000e+00  1.6752008829193221e+00 -6.6039454429128763e-01 0.0000000000000000e+00  1.7122835090781201e+00 -6.0159468385234505e-01 0.0000000000000000e+00  1.8218631460451746e+00 -5.9730964692466726e-01 0.0000000000000000e+00  1.9998279288368381e+00 -6.3934290150058981e-01 0.0000000000000000e+00  2.0915608891900312e+00 -6.9618869683234463e-01 0.0000000000000000e+00  2.1259193506996610e+00 -8.0415261909254032e-01 0.0000000000000000e+00  2.1219228800370336e+00 -9.0826327852511413e-01 0.0000000000000000e+00  2.1498174187428316e+00 -1.0078827151475234e+00 0.0000000000000000e+00  2.2084520617520353e+00 -1.0466482082596991e+00 0.0000000000000000e+00  2.3498150319087778e+00 -1.0979960054486537e+00 0.0000000000000000e+00  2.5724060092681755e+00 -1.1542836369259135e+00 0.0000000000000000e+00  2.6624245905493789e+00 -1.1470478811446141e+00 0.0000000000000000e+00  2.7854821725281611e+00 -1.0977399932346352e+00 0.0000000000000000e+00  2.8429264325424901e+00 -1.0144722673179074e+00 0.0000000000000000e+00  2.8512364241827650e+00 -9.3108747489374577e-01 0.0000000000000000e+00  2.8105124014754317e+00 -8.4754300587592790e-01 0.0000000000000000e+00  2.7284757357213878e+00 -7.9710814068182789e-01 0.0000000000000000e+00  2.6290289828647140e+00 -8.2264179274382077e-01 0.0000000000000000e+00  2.5275057235729572e+00 -8.4231973842403274e-01 0.0000000000000000e+00  2.4461008987766086e+00 -7.8305261459951336e-01 0.0000000000000000e+00  2.4626295948437300e+00 -6.7929674135239437e-01 0.0000000000000000e+00  2.5085420223055963e+00 -6.1978619002098989e-01 0.0000000000000000e+00  2.5746001826157370e+00 -5.6836936074985678e-01 0.0000000000000000e+00  2.6510185842196652e+00 -5.3923830310220155e-01 0.0000000000000000e+00  2.7271364434442571e+00 -4.9767282066893559e-01 0.0000000000000000e+00  2.7684195090779458e+00 -4.3539717663657218e-01 0.0000000000000000e+00  2.8084452039530365e+00 -3.3092011322116244e-01 0.0000000000000000e+00  2.8294738830473536e+00 -2.1744358646510897e-01 0.0000000000000000e+00  2.8254880158842037e+00 -1.2105017897591955e-01 0.0000000000000000e+00  2.8175879033958204e+00 -2.1881525010479821e-02 0.0000000000000000e+00  2.8137536332079667e+00 5.1787251940311606e-02 0.0000000000000000e+00  2.7998886137080734e+00 1.1685511927230370e-01 0.0000000000000000e+00  2.7725904340220802e+00 1.8255161934291927e-01 0.0000000000000000e+00  2.7272176302112840e+00 2.3318788288988940e-01 0.0000000000000000e+00  2.6596738971612988e+00 2.7824615528583774e-01 0.0000000000000000e+00  2.5914008477949206e+00 2.9713943327828779e-01 0.0000000000000000e+00  2.5678141668599928e+00 2.9328059454827249e-01 0.0000000000000000e+00  2.5158435554477316e+00 3.0196400610769142e-01 0.0000000000000000e+00  2.4444267743797923e+00 3.1663671373977142e-01 0.0000000000000000e+00  2.2675198162323018e+00 3.4038569971253457e-01 0.0000000000000000e+00  2.1207876217325241e+00 3.5874900219635969e-01 0.0000000000000000e+00  1.9776139838474620e+00 3.5599986860584976e-01 0.0000000000000000e+00  1.9010492307347107e+00 3.5559883817231625e-01 0.0000000000000000e+00  1.8208578602758534e+00 3.7106692929128893e-01 0.0000000000000000e+00  1.7207237924516006e+00 3.8961973419483059e-01 0.0000000000000000e+00  1.5820779243372096e+00 4.0556953843023930e-01 0.0000000000000000e+00  1.5016156743925415e+00 4.0495466097419730e-01 0.0000000000000000e+00  1.4749012496612350e+00 4.0822287604730617e-01 0.0000000000000000e+00  1.4523092920042349e+00 4.2275217860910608e-01 0.0000000000000000e+00  1.8081764693209770e+00 3.7015996683865426e-01 0.0000000000000000e+00  1.5963212991735267e+00 -1.3550227593956685e-01 0.0000000000000000e+00  0.0000000000000000e+00 0.0000000000000000e+00 0.0000000000000000e+00  0.0000000000000000e+00 0.0000000000000000e+00 0.0000000000000000e+00  1.4457174505804324e+00 4.3013861408338655e-01 0.0000000000000000e+00  1.4392611042679384e+00 4.3479439150446186e-01 0.0000000000000000e+00  1.4293142023926697e+00 4.4082293885188434e-01 0.0000000000000000e+00  1.4146614210825348e+00 4.4865627842176609e-01 0.0000000000000000e+00  1.3702523403077054e+00 4.6706232246980789e-01 0.0000000000000000e+00  1.3378696229278502e+00 4.7802910595523807e-01 0.0000000000000000e+00  1.2912196371673861e+00 4.9064763457061100e-01 0.0000000000000000e+00  1.1533630298513278e+00 5.1287936373026266e-01 0.0000000000000000e+00  8.3804345777986256e-01 4.9212678528285236e-01 0.0000000000000000e+00  7.6473634216199804e-01 4.8319069720388674e-01 0.0000000000000000e+00  4.8216216421563024e-01 4.8020671543062482e-01 0.0000000000000000e+00  4.3156218834391907e-01 5.1355668510924213e-01 0.0000000000000000e+00  3.4536762321395492e-01 5.8859390331503980e-01 0.0000000000000000e+00  3.1597485211191417e-01 6.1830402385052996e-01 0.0000000000000000e+00  2.3131488103481049e-01 6.5830040880983520e-01 0.0000000000000000e+00  1.5760127092368792e-01 5.9557569151226131e-01 0.0000000000000000e+00  1.4373841808756593e-01 5.6289966926164614e-01 0.0000000000000000e+00  1.0499595250592353e-01 4.6956175264991290e-01 0.0000000000000000e+00  8.0640904541227409e-02 4.0415650849664397e-01 0.0000000000000000e+00  1.8165298414877473e-02 2.4693028035621983e-01 0.0000000000000000e+00  -3.4846577221794225e-02 -1.5946496511590053e-01 0.0000000000000000e+00  1.6178600759486006e-01 -5.2554062705300220e-01 0.0000000000000000e+00  5.0238158683462253e-01 -6.5869780410787993e-01 0.0000000000000000e+00  5.9514663779558497e-01 -6.8416528096983820e-01 0.0000000000000000e+00  1.3129488805926759e+00 -8.1639991423281233e-01 0.0000000000000000e+00  1.5235745236931717e+00 -7.7162686865706309e-01 0.0000000000000000e+00  1.7472520654186217e+00 -5.7938086611782769e-01 0.0000000000000000e+00  2.1082141876769893e+00 -7.4127129407312509e-01 0.0000000000000000e+00  2.1373762886601639e+00 -9.6446261418533386e-01 0.0000000000000000e+00  2.2691151513793737e+00 -1.0681917599830828e+00 0.0000000000000000e+00  2.4417640904783053e+00 -1.1220025409123493e+00 0.0000000000000000e+00  2.5151300638816125e+00 -1.1405699589518383e+00 0.0000000000000000e+00  2.7159362608322422e+00 -1.1257327675693254e+00 0.0000000000000000e+00  2.6853964601126203e+00 -8.0808435423312519e-01 0.0000000000000000e+00  2.4535420673306643e+00 -7.3782668651576200e-01 0.0000000000000000e+00  2.6937709512064858e+00 -5.1519505602327054e-01 0.0000000000000000e+00  2.8209025085569333e+00 -2.6609264416177014e-01 0.0000000000000000e+00  2.8230630266085281e+00 -6.6016409887761807e-02 0.0000000000000000e+00  2.7897943490078210e+00 1.4655633325001752e-01 0.0000000000000000e+00  2.6907142198507659e+00 2.6121732740810111e-01 0.0000000000000000e+00  2.6207598019214933e+00 2.9260708944956604e-01 0.0000000000000000e+00  2.5461791231378887e+00 2.9404598231895435e-01 0.0000000000000000e+00  2.3752973246498001e+00 3.4004461128092567e-01 0.0000000000000000e+00  2.0487436989584840e+00 3.5488434908495831e-01 0.0000000000000000e+00  1.6461942487604313e+00 3.9816475301245013e-01 0.0000000000000000e+00  1.5302692772065800e+00 4.0535908732720627e-01 0.0000000000000000e+00  1.4839099232121835e+00 4.0585912889920639e-01 0.0000000000000000e+00  1.4679954447136423e+00 4.1242634412896995e-01 0.0000000000000000e+00  1.4614139101081540e+00 4.1656165188406519e-01 0.0000000000000000e+00  1.4562369076195676e+00 4.1995319165454376e-01 0.0000000000000000e+00  2.0251960108690361e+00 4.0493784392375898e-01 0.0000000000000000e+00  2.2785321364713118e+00 4.2437727394199293e-01 0.0000000000000000e+00  2.5532923175375646e+00 3.9267246015030849e-01 0.0000000000000000e+00  2.7895695548444701e+00 2.8356585539620116e-01 0.0000000000000000e+00  2.8845460147026629e+00 8.7101958541866614e-02 0.0000000000000000e+00  2.7606951414027190e+00 -1.1784735334646547e-01 0.0000000000000000e+00  2.4558494319820419e+00 -2.3843923940705009e-01 0.0000000000000000e+00  2.1152196937557890e+00 -2.3484593928872785e-01 0.0000000000000000e+00  1.8359919997033032e+00 -1.7810258246949745e-01 0.0000000000000000e+00  1.5029671995169602e+00 1.0974956013490941e-01 0.0000000000000000e+00  1.4112672002213797e+00 3.2685027551982482e-01 0.0000000000000000e+00  1.3052564140160829e+00 5.0316410677840739e-01 0.0000000000000000e+00  1.1929612991619605e+00 6.3670952519301127e-01 0.0000000000000000e+00  1.0880910306889078e+00 6.9650970133178125e-01 0.0000000000000000e+00  9.8117625959742105e-01 6.4916702081919631e-01 0.0000000000000000e+00  8.2681099356802767e-01 5.0092516787574326e-01 0.0000000000000000e+00  6.0135208741826951e-01 3.1972158086963054e-01 0.0000000000000000e+00  3.2422572353005236e-01 1.7321789766250731e-01 0.0000000000000000e+00  3.8116772298903445e-01 -2.0914647174868298e-01 0.0000000000000000e+00  6.9381035220911536e-01 -4.1685042583527759e-01 0.0000000000000000e+00  9.1641639049622814e-01 -6.6824122828084553e-01 0.0000000000000000e+00  1.0070458861190787e+00 -8.0861139349473821e-01 0.0000000000000000e+00  1.0748873116969395e+00 -7.0566911350135753e-01 0.0000000000000000e+00  1.2227276474917126e+00 -4.7271182517757204e-01 0.0000000000000000e+00  1.4133474335834026e+00 -2.4264834565403323e-01 0.0000000000000000e+00  1.5814744875597242e+00 -3.6507667472997211e-02 0.0000000000000000e+00  1.7099909018503996e+00 1.6348284588127207e-01 0.0000000000000000e+00  0.0000000000000000e+00 0.0000000000000000e+00 0.0000000000000000e+00  0.0000000000000000e+00 0.0000000000000000e+00 0.0000000000000000e+00  0.0000000000000000e+00 0.0000000000000000e+00 0.0000000000000000e+00  0.0000000000000000e+00 0.0000000000000000e+00 0.0000000000000000e+00  0.0000000000000000e+00 0.0000000000000000e+00 0.0000000000000000e+00  0.0000000000000000e+00 0.0000000000000000e+00 0.0000000000000000e+00  0.0000000000000000e+00 0.0000000000000000e+00 0.0000000000000000e+00  0.0000000000000000e+00 0.0000000000000000e+00 0.0000000000000000e+00  0.0000000000000000e+00 0.0000000000000000e+00 0.0000000000000000e+00  2.7864431436099988e+00 -3.8960850340827302e-01 0.0000000000000000e+00  2.2047127090907903e+00 2.6509128193933317e-02 0.0000000000000000e+00  2.1679330638174588e-01 -7.8373213335604347e-02 0.0000000000000000e+00  2.4257789491105172e-01 5.2516560204348514e-02 0.0000000000000000e+00  1.6289908650470850e+00 3.9691151552651355e-01 0.0000000000000000e+00  1.2586842119225692e+00 5.8103625432793837e-01 0.0000000000000000e+00  2.8175223375739460e+00 1.3431325504277739e-01 0.0000000000000000e+00  1.3094739752998559e+00 -6.2926687749733790e-01 0.0000000000000000e+00  -2.4825262188386498e-02 -5.1002514235414355e-03 0.0000000000000000e+00  6.8467920943678884e-01 4.0921192152919844e-01 0.0000000000000000e+00  9.1381353701939627e-01 -7.1256862702394042e-01 0.0000000000000000e+00  1.4244165746535431e-01 5.8161938084926909e-02 0.0000000000000000e+00  1.9756948345791886e-01 -9.0845175478826742e-02 0.0000000000000000e+00  1.8751497575432292e+00 2.5639378279574060e-01 0.0000000000000000e+00  1.6598508121640245e+00 6.9453712891034986e-03 0.0000000000000000e+00  2.5308740167820060e-01 3.9110149086019630e-01 0.0000000000000000e+00  2.2849630571787065e+00 -6.6395579706912911e-01 0.0000000000000000e+00  2.2927651653853913e+00 -8.7900933527470071e-01 0.0000000000000000e+00  2.6249529198034840e+00 -9.8776114996184561e-01 0.0000000000000000e+00  2.6543359340928054e+00 -3.9930849578091471e-01 0.0000000000000000e+00  2.3605956154125066e-01 5.8380102369991549e-01 0.0000000000000000e+00  1.4413770860532209e+00 4.2679559253487087e-01 0.0000000000000000e+00  1.7328707774626893e-02 -2.9858714597237577e-02 0.0000000000000000e+00  1.9812103346676992e+00 9.8071536846849064e-02 0.0000000000000000e+00  1.6218013913260227e+00 -2.8543471979001045e-01 0.0000000000000000e+00  2.6191701850034121e+00 1.5996903644400401e-01 0.0000000000000000e+00  2.4282264717929296e+00 -6.7891166949709009e-02 0.0000000000000000e+00  2.0928774034925701e+00 1.0338086295155846e-01 0.0000000000000000e+00  3.6924734522760261e-01 1.4973989306735486e-01 0.0000000000000000e+00  5.4073059930741285e-01 -3.2782937902726733e-01 0.0000000000000000e+00  1.0254984753620719e+00 6.3638525021867987e-01 0.0000000000000000e+00  1.6671917595691177e+00 2.0142431811470610e-01 0.0000000000000000e+00  7.0900839293420781e-02 -7.2299689128189348e-02 0.0000000000000000e+00  1.3976826297463645e+00 5.3295722363852405e-01 0.0000000000000000e+00  1.6291444653507960e+00 4.5630443872995535e-01 0.0000000000000000e+00  3.1802325946726218e-01 1.5182870740594454e-01 0.0000000000000000e+00  4.2150242868744742e-01 -2.8375575637557460e-01 0.0000000000000000e+00  7.6310174581667264e-02 1.0375724775170934e-02 0.0000000000000000e+00  9.1661719078172665e-02 -1.5774621875748213e-02 0.0000000000000000e+00  1.0871244665462616e+00 -7.5924101750734296e-01 0.0000000000000000e+00  2.8270846354861545e+00 5.1200894615844275e-02 0.0000000000000000e+00  1.3946647494123448e+00 4.9407829297751532e-01 0.0000000000000000e+00  2.6747219164302374e+00 1.4258023381708526e-01 0.0000000000000000e+00  2.7630132968892012e+00 1.4805414910922840e-01 0.0000000000000000e+00  1.3818628625721150e+00 -6.4164189317488662e-01 0.0000000000000000e+00  -1.4443414145334336e-02 1.7014672694952570e-03 0.0000000000000000e+00  7.1437457129993365e-01 4.4485420273523874e-01 0.0000000000000000e+00  9.5442959546885919e-01 -7.6106596697950424e-01 0.0000000000000000e+00  1.4576789948815691e-01 3.3034839524871595e-01 0.0000000000000000e+00  2.6172657084830786e+00 -4.6191982191234854e-01 0.0000000000000000e+00  2.6245728838663568e-01 4.9674506354782988e-01 0.0000000000000000e+00  2.3947653430898423e+00 -5.3100571226778204e-01 0.0000000000000000e+00  2.1519406913282011e+00 -5.4222046162388471e-01 0.0000000000000000e+00  2.4453053775689821e+00 -1.0041615098759389e+00 0.0000000000000000e+00  2.3008744766003626e+00 -7.6211285750918822e-01 0.0000000000000000e+00  2.7203550946448201e+00 -9.4077447089721655e-01 0.0000000000000000e+00  2.7274478541630014e+00 -3.7020729763612004e-01 0.0000000000000000e+00  2.1979215445809146e+00 -8.4375980545146045e-01 0.0000000000000000e+00  2.6914123547639726e+00 -4.5981471289777937e-01 0.0000000000000000e+00  2.2512568113929516e+00 -9.8579700697663974e-01 0.0000000000000000e+00  2.6663383310465121e+00 -1.0762713309919594e+00 0.0000000000000000e+00  2.5908806930409178e+00 -8.9500849195932097e-01 0.0000000000000000e+00  1.9330751157724635e-01 5.6084776989284624e-01 0.0000000000000000e+00  2.5701240880566700e-01 6.2170312724419363e-01 0.0000000000000000e+00  2.0662577282198327e-01 6.1356780395854438e-01 0.0000000000000000e+00  1.4203245358274261e+00 4.3713501243406694e-01 0.0000000000000000e+00  1.4495224629220531e+00 4.2249346291481715e-01 0.0000000000000000e+00  1.4439302303775814e+00 4.2781178008071769e-01 0.0000000000000000e+00  1.9414387209188468e+00 -2.2117753376100996e-01 0.0000000000000000e+00  2.3547513625616938e+00 1.9436488861703283e-01 0.0000000000000000e+00  4.2367562456087908e-02 1.9763329550066176e-02 0.0000000000000000e+00  2.6180283510958686e+00 1.3659789891030201e-02 0.0000000000000000e+00  2.1334209744931898e-01 -7.6138895774088736e-02 0.0000000000000000e+00  1.7115855250820546e+00 -6.9541080974622818e-02 0.0000000000000000e+00  2.8238373582790448e+00 1.4617823843596006e-01 0.0000000000000000e+00  2.5816508637335094e+00 8.8970803951027105e-02 0.0000000000000000e+00  5.7832999789461526e-01 3.1388019014688906e-01 0.0000000000000000e+00  -8.8932930698841905e-03 -2.0805781927493674e-02 0.0000000000000000e+00  4.7642529257758276e-01 2.2340551365406189e-01 0.0000000000000000e+00  4.7712690334040943e-02 -3.5617947346977021e-02 0.0000000000000000e+00  1.9050578204118118e+00 5.2679058190583855e-02 0.0000000000000000e+00  1.3719413336255215e+00 -4.6758682309969823e-01 0.0000000000000000e+00  1.5173269772849188e-01 3.0929736879161684e-02 0.0000000000000000e+00  1.0949439927953784e+00 5.7604787942721736e-01 0.0000000000000000e+00  2.0269006567884955e+00 2.4560914713253623e-01 0.0000000000000000e+00  1.1282200941236957e+00 6.5627220771088246e-01 0.0000000000000000e+00  7.3478124473098294e-01 -5.1126106677999195e-01 0.0000000000000000e+00  1.9495886993688196e+00 2.7099408269155256e-01 0.0000000000000000e+00  1.4607435125745436e+00 4.0660501018582973e-01 0.0000000000000000e+00  8.5803665711040888e-01 5.6248178089551648e-01 0.0000000000000000e+00  -5.9593785742180022e-02 -1.0777394108427993e-02 0.0000000000000000e+00  1.8152889904130909e+00 1.0905454573534321e-01 0.0000000000000000e+00  2.4373008451722940e+00 -2.6345519205009027e-01 0.0000000000000000e+00  6.2565053328108078e-02 7.0601311085664642e-02 0.0000000000000000e+00  7.8547532916143248e-01 -5.8005668857955062e-01 0.0000000000000000e+00  1.0973869597089043e+00 -7.5437645216906979e-01 0.0000000000000000e+00  2.6369713872732405e+00 -5.0898477533375314e-02 0.0000000000000000e+00  2.7683966082477307e-01 1.1896730328853203e-01 0.0000000000000000e+00  1.4469744792501787e-01 -2.5796908611727953e-01 0.0000000000000000e+00  2.7667409282674154e+00 1.9082000458175266e-01 0.0000000000000000e+00  1.4512353897081216e+00 5.1088634357086293e-01 0.0000000000000000e+00  -7.8996459613663791e-03 -9.4701393378609999e-02 0.0000000000000000e+00  1.9519814867041119e-01 -1.1394678957468449e-01 0.0000000000000000e+00  1.5259934462501621e+00 4.7423225169658340e-01 0.0000000000000000e+00  1.5877346897781379e+00 4.5329974874775958e-01 0.0000000000000000e+00  1.7745115423198448e+00 4.1740960718446635e-01 0.0000000000000000e+00  1.0709033185595962e+00 -7.6360089765175132e-01 0.0000000000000000e+00  2.3761346452538747e+00 1.5125859081075965e-01 0.0000000000000000e+00  9.7501860731656154e-01 -7.6531628184072842e-01 0.0000000000000000e+00  3.6697107118983174e-01 2.7798714419001536e-01 0.0000000000000000e+00  4.2550682075025453e-01 -4.1459273444492234e-01 0.0000000000000000e+00  1.4372690965084705e+00 4.4920206254373229e-01 0.0000000000000000e+00  1.4930168516392703e+00 -6.4353817836887639e-01 0.0000000000000000e+00  8.2868916081753807e-01 5.3324455541755689e-01 0.0000000000000000e+00  2.7324338422210706e+00 -2.6216793385554976e-01 0.0000000000000000e+00  1.814173125630365