<?xml version="1.0"?>
<VTKFile type="UnstructuredGrid"  version="0.1"  >
<UnstructuredGrid>
<Piece  NumberOfPoints="2868" NumberOfCells="5400">
<Points>
<DataArray  type="Float64"  NumberOfComponents="3"  format="ascii">0.534923 0.326073 0  0.510642 0.314196 0  0.466125 0.293082 0  0.436448 0.281205 0  0.409468 0.275927 0  0.368998 0.270648 0  0.35281 0.275927 0  0.381139 0.302319 0  0.405421 0.326073 0  0.410817 0.33531 0  0.408119 0.349826 0  0.400025 0.357744 0  0.375743 0.368301 0  0.329878 0.392055 0  0.297502 0.432963 0  0.282663 0.476511 0  0.285361 0.524018 0  0.298851 0.572845 0  0.317737 0.6045160000000001 0  0.337972 0.6361869999999999 0  0.360904 0.674457 0  0.368998 0.69953 0  0.359555 0.7219640000000001 0  0.360904 0.757594 0  0.370347 0.766831 0  0.381139 0.762872 0  0.390582 0.741758 0  0.404072 0.720644 0  0.424307 0.707448 0  0.447239 0.702169 0  0.480964 0.704808 0  0.479615 0.6889729999999999 0  0.468823 0.675776 0  0.447239 0.6691780000000001 0  0.428354 0.6691780000000001 0  0.410817 0.6639 0  0.404072 0.653343 0  0.395978 0.628269 0  0.387884 0.59132 0  0.389233 0.576804 0  0.397327 0.557009 0  0.410817 0.547772 0  0.424307 0.546452 0  0.437797 0.55305 0  0.44589 0.5662469999999999 0  0.441843 0.582082 0  0.439145 0.5979179999999999 0  0.449937 0.609795 0  0.468823 0.603196 0  0.479615 0.59 0  0.489058 0.570205 0  0.494454 0.546452 0  0.505246 0.522699 0  0.522783 0.509502 0  0.55246 0.494986 0  0.586185 0.484429 0  0.615863 0.48047 0  0.64554 0.473872 0  0.6671240000000001 0.461995 0  0.683312 0.451438 0  0.696802 0.435603 0  0.703547 0.417128 0  0.7116400000000001 0.393374 0  0.7183850000000001 0.37226 0  0.7251300000000001 0.364342 0  0.739969 0.353785 0  0.7453650000000001 0.344548 0  0.7453650000000001 0.327393 0  0.737271 0.318155 0  0.7183850000000001 0.316835 0  0.7008490000000001 0.319475 0  0.677916 0.318155 0  0.650936 0.316835 0  0.610467 0.318155 0  0.57944 0.324753 0  0.559205 0.328712 0  0.5389699999999999 0.326073 0  1 1 0  1 0 0  0 0 0  0 1 0  0.532238 0.32476 0  0.528748 0.323052 0  0.52421 0.320833 0  0.518311 0.317947 0  0.503447 0.310783 0  0.494093 0.306347 0  0.481933 0.30058 0  0.452151 0.28749 0  0.392327 0.273691 0  0.379141 0.271971 0  0.360474 0.283066 0  0.369797 0.291752 0  0.391424 0.31238 0  0.399335 0.32012 0  0.40958 0.341964 0  0.393939 0.36039 0  0.386028 0.36383 0  0.364248 0.374254 0  0.349304 0.381994 0  0.315801 0.409841 0  0.292986 0.551616 0  0.350934 0.657818 0  0.360127 0.737055 0  0.360566 0.748664 0  0.385245 0.753692 0  0.396447 0.732578 0  0.466301 0.703661 0  0.459439 0.672908 0  0.418442 0.666195 0  0.400553 0.642441 0  0.39255 0.612619 0  0.389913 0.60058 0  0.392752 0.568197 0  0.444131 0.573132 0  0.458149 0.606926 0  0.5005540000000001 0.533026 0  0.571522 0.489019 0  0.632637 0.476741 0  0.689177 0.444553 0  0.708121 0.403702 0  0.715453 0.38144 0  0.732406 0.359166 0  0.7453650000000001 0.337089 0  0.72906 0.317581 0  0.629879 0.317522 0  0.59293 0.321884 0  0.568003 0.326991 0  0.55202 0.327775 0  0.546493 0.327054 0  0.542241 0.326499 0  1 0.9 0  1 0.8 0  1 0.7 0  1 0.6 0  1 0.5 0  1 0.4 0  1 0.3 0  1 0.2 0  1 0.1 0  0.9 0 0  0.8 0 0  0.7 0 0  0.6 0 0  0.5 0 0  0.4 0 0  0.3 0 0  0.2 0 0  0.1 0 0  0.1 1 0  0.2 1 0  0.3 1 0  0.4 1 0  0.5 1 0  0.6 1 0  0.7 1 0  0.8 1 0  0.9 1 0  0 0.1 0  0 0.2 0  0 0.3 0  0 0.4 0  0 0.5 0  0 0.6 0  0 0.7 0  0 0.8 0  0 0.9 0  0.535686 0.5031910000000001 0  0.753987 0.733359 0  0.167145 0.741436 0  0.173378 0.257204 0  0.733497 0.159862 0  0.554096 0.15788 0  0.849187 0.479053 0  0.488793 0.838452 0  0.138507 0.5592 0  0.30686 0.154944 0  0.348904 0.890523 0  0.058006 0.065099 0  0.06984899999999999 0.937917 0  0.93633 0.939704 0  0.934625 0.053613 0  0.343397 0.333452 0  0.473272 0.639943 0  0.433266 0.638072 0  0.415174 0.58269 0  0.533435 0.545042 0  0.390848 0.340652 0  0.53655 0.320242 0  0.127966 0.393775 0  0.83861 0.850455 0  0.635242 0.8551299999999999 0  0.852158 0.633441 0  0.653427 0.626848 0  0.861226 0.24292 0  0.166128 0.12976 0  0.216875 0.8698709999999999 0  0.458305 0.11179 0  0.84446 0.101633 0  0.202024 0.642528 0  0.644825 0.115855 0  0.671342 0.218358 0  0.251354 0.286186 0  0.262388 0.75153 0  0.063044 0.751571 0  0.068189 0.242962 0  0.435781 0.9053949999999999 0  0.934144 0.451133 0  0.568393 0.237622 0  0.814984 0.395506 0  0.752951 0.517227 0  0.456254 0.780699 0  0.073352 0.531116 0  0.337731 0.206071 0  0.363213 0.960371 0  0.330742 0.363592 0  0.516613 0.55705 0  0.369057 0.332992 0  0.500926 0.617309 0  0.498004 0.665534 0  0.412142 0.61178 0  0.454233 0.6366039999999999 0  0.422782 0.567496 0  0.541193 0.5214800000000001 0  0.439761 0.65557 0  0.5163 0.533672 0  0.414775 0.64562 0  0.40073 0.576135 0  0.430362 0.5880339999999999 0  0.385432 0.351492 0  0.400298 0.335397 0  0.398325 0.348194 0  0.528702 0.314885 0  0.540814 0.322334 0  0.534477 0.322953 0  0.619095 0.743583 0  0.885162 0.737972 0  0.08076 0.668849 0  0.90734 0.36634 0  0.09468699999999999 0.868937 0  0.759838 0.912152 0  0.901518 0.540898 0  0.747285 0.607479 0  0.229182 0.071641 0  0.06915399999999999 0.450091 0  0.244775 0.203309 0  0.076534 0.331755 0  0.897847 0.167826 0  0.578909 0.911415 0  0.07713299999999999 0.146341 0  0.477215 0.203448 0  0.922631 0.869341 0  0.517415 0.074785 0  0.297026 0.827793 0  0.7832710000000001 0.246505 0  0.74519 0.061079 0  0.36033 0.069068 0  0.210313 0.475228 0  0.859426 0.928758 0  0.5745479999999999 0.609182 0  0.243069 0.383398 0  0.283099 0.934598 0  0.417416 0.843141 0  0.643942 0.553164 0  0.112687 0.079336 0  0.281357 0.658386 0  0.765043 0.436177 0  0.611361 0.198486 0  0.234496 0.58911 0  0.206479 0.702638 0  0.679608 0.155818 0  0.62682 0.259978 0  0.690538 0.264164 0  0.448938 0.956308 0  0.808154 0.328403 0  0.379583 0.91913 0  0.308083 0.297769 0  0.312358 0.730249 0  0.563101 0.278576 0  0.435597 0.746198 0  0.385475 0.225229 0  0.572248 0.518034 0  0.357864 0.35422 0  0.497647 0.641694 0  0.458101 0.655768 0  0.360474 0.310727 0  0.467038 0.620139 0  0.47798 0.659909 0  0.41102 0.628072 0  0.48324 0.609015 0  0.427544 0.617941 0  0.388633 0.328253 0  0.405336 0.599404 0  0.408351 0.565178 0  0.42395 0.600985 0  0.431562 0.576523 0  0.424905 0.6551979999999999 0  0.398064 0.58782 0  0.427739 0.557934 0  0.5192909999999999 0.303443 0  0.53142 0.320293 0  0.5449000000000001 0.323642 0  0.537166 0.323513 0  0.153974 0.920841 0  0.9181859999999999 0.67343 0  0.759946 0.820588 0  0.5375259999999999 0.783091 0  0.816532 0.545843 0  0.813991 0.178083 0  0.836774 0.702023 0  0.149815 0.318856 0  0.662287 0.923338 0  0.680146 0.791192 0  0.708961 0.663172 0  0.9372779999999999 0.287318 0  0.574622 0.6881660000000001 0  0.5894740000000001 0.076262 0  0.502822 0.926683 0  0.222269 0.811068 0  0.380457 0.164786 0  0.15321 0.684154 0  0.458063 0.051413 0  0.161702 0.056026 0  0.199351 0.198818 0  0.298946 0.09553200000000001 0  0.902465 0.795949 0  0.121139 0.791477 0  0.906269 0.112287 0  0.056109 0.822332 0  0.512172 0.13237 0  0.940964 0.741805 0  0.888887 0.408777 0  0.354543 0.825964 0  0.808736 0.068638 0  0.068507 0.394071 0  0.719105 0.563843 0  0.247287 0.149664 0  0.293062 0.237128 0  0.240524 0.434997 0  0.141255 0.623289 0  0.945202 0.160621 0  0.502914 0.247629 0  0.144669 0.480811 0  0.665025 0.060817 0  0.728047 0.224344 0  0.861995 0.313312 0  0.200068 0.534235 0  0.253262 0.965623 0  0.893804 0.49307 0  0.604391 0.572456 0  0.947088 0.345347 0  0.439372 0.227307 0  0.629847 0.159823 0  0.273405 0.880181 0  0.302744 0.776823 0  0.781502 0.295365 0  0.275342 0.349602 0  0.7283849999999999 0.472798 0  0.229136 0.246478 0  0.807794 0.480346 0  0.709476 0.112786 0  0.275506 0.694991 0  0.771674 0.394419 0  0.449715 0.861802 0  0.419159 0.799696 0  0.674851 0.503139 0  0.280443 0.61016 0  0.572443 0.192538 0  0.393113 0.87525 0  0.405555 0.948428 0  0.330942 0.934103 0  0.540509 0.597101 0  0.312763 0.6689310000000001 0  0.254368 0.540179 0  0.595265 0.25915 0  0.606679 0.234099 0  0.657131 0.279138 0  0.722458 0.279478 0  0.333 0.308056 0  0.351529 0.246142 0  0.455714 0.7257940000000001 0  0.585239 0.295143 0  0.340062 0.72492 0  0.545593 0.293773 0  0.555449 0.545426 0  0.414311 0.737314 0  0.590854 0.502323 0  0.350507 0.368444 0  0.484423 0.625665 0  0.483899 0.674542 0  0.378137 0.317274 0  0.446416 0.646404 0  0.373532 0.347654 0  0.446876 0.619769 0  0.466106 0.666068 0  0.437545 0.609254 0  0.434988 0.565726 0  0.41462 0.656829 0  0.418803 0.556961 0  0.398425 0.327446 0  0.517803 0.310421 0  0.549516 0.322918 0  0.57701 0.842889 0  0.8291269999999999 0.773906 0  0.643235 0.684732 0  0.134281 0.207734 0  0.865997 0.055966 0  0.680959 0.723345 0  0.165229 0.8415550000000001 0  0.54558 0.959672 0  0.783726 0.656439 0  0.913315 0.595533 0  0.699439 0.860667 0  0.785839 0.125076 0  0.551673 0.037713 0  0.9200970000000001 0.223214 0  0.206406 0.299726 0  0.087064 0.596401 0  0.935644 0.394252 0  0.964557 0.252582 0  0.230124 0.928346 0  0.120579 0.271764 0  0.8572149999999999 0.524082 0  0.7670979999999999 0.5551469999999999 0  0.936094 0.507131 0  0.804064 0.59585 0  0.700565 0.608273 0  0.429773 0.174231 0  0.117746 0.727333 0  0.5389620000000001 0.730231 0  0.862761 0.359173 0  0.821444 0.284046 0  0.193552 0.35818 0  0.234923 0.505555 0  0.193209 0.421217 0  0.220144 0.755896 0  0.594015 0.131642 0  0.283813 0.195855 0  0.517519 0.213961 0  0.553509 0.639116 0  0.280391 0.378018 0  0.852183 0.436817 0  0.746983 0.197173 0  0.821806 0.221318 0  0.449853 0.828453 0  0.883758 0.453926 0  0.183484 0.589542 0  0.348384 0.129314 0  0.255254 0.838525 0  0.504849 0.798516 0  0.320344 0.863432 0  0.611669 0.525425 0  0.265864 0.804962 0  0.72056 0.521442 0  0.613372 0.6101220000000001 0  0.481262 0.881068 0  0.655778 0.191988 0  0.701921 0.196918 0  0.5658260000000001 0.5731810000000001 0  0.46914 0.240927 0  0.343219 0.173284 0  0.888786 0.278502 0  0.244113 0.6750930000000001 0  0.739546 0.417914 0  0.784023 0.355942 0  0.326805 0.265549 0  0.248616 0.6
[...]
<PointData  Vectors="f_21"> 
<DataArray  type="Float64"  Name="f_21"  NumberOfComponents="3" format="ascii">7.6174182892174447e-01 6.9778411238393109e-02 0.0000000000000000e+00  7.4266131500629085e-01 7.7359853109117041e-02 0.0000000000000000e+00  6.7827323899878367e-01 9.0489195924382482e-02 0.0000000000000000e+00  6.1717696203450545e-01 9.6453828213005466e-02 0.0000000000000000e+00  5.5551088969143836e-01 9.7329856982722354e-02 0.0000000000000000e+00  4.3882415707209049e-01 1.0512061819637139e-01 0.0000000000000000e+00  3.6104016414621504e-01 1.0581613199602952e-01 0.0000000000000000e+00  2.5749744382771628e-01 1.7897672120799304e-01 0.0000000000000000e+00  2.0753321873888947e-01 2.2239125766951398e-01 0.0000000000000000e+00  1.8919256089664360e-01 2.3294061241746805e-01 0.0000000000000000e+00  1.6000176279443165e-01 2.2744386361790325e-01 0.0000000000000000e+00  1.4396104500244300e-01 2.1100159236844229e-01 0.0000000000000000e+00  1.2351994726310593e-01 1.6124339860566916e-01 0.0000000000000000e+00  8.8891156658191459e-02 7.6124486529036570e-02 0.0000000000000000e+00  4.7325556761443552e-02 2.8745584284962516e-02 0.0000000000000000e+00  2.2361519306817318e-02 2.0800047331001499e-03 0.0000000000000000e+00  1.4038772549985801e-02 -2.1294206190998529e-02 0.0000000000000000e+00  2.2703941387118731e-02 -5.5215881650000367e-02 0.0000000000000000e+00  4.3318068018583310e-02 -9.3837895613215164e-02 0.0000000000000000e+00  7.7530382031551173e-02 -1.4008548149108971e-01 0.0000000000000000e+00  1.3996918400247219e-01 -2.0136127578747764e-01 0.0000000000000000e+00  1.9300687073645437e-01 -2.2650028561803220e-01 0.0000000000000000e+00  2.4653205144683857e-01 -2.1444798669849310e-01 0.0000000000000000e+00  4.0036014814875243e-01 -2.2759166417788465e-01 0.0000000000000000e+00  5.1475278412509173e-01 -2.5127039108890126e-01 0.0000000000000000e+00  6.0695390156913720e-01 -2.5118807110222496e-01 0.0000000000000000e+00  7.4051157607040818e-01 -2.4263407106525109e-01 0.0000000000000000e+00  8.0542395973895997e-01 -2.1240893993228049e-01 0.0000000000000000e+00  8.3285455156584332e-01 -1.7933615764420696e-01 0.0000000000000000e+00  8.4528062771686341e-01 -1.5475155304520261e-01 0.0000000000000000e+00  8.8119151123792228e-01 -1.4919891557244941e-01 0.0000000000000000e+00  9.4059893507219916e-01 -1.5403381615623163e-01 0.0000000000000000e+00  9.7114603541741829e-01 -1.5310766477316590e-01 0.0000000000000000e+00  9.8586537179140921e-01 -1.4741579840601562e-01 0.0000000000000000e+00  9.8791469857605441e-01 -1.4570186204711130e-01 0.0000000000000000e+00  9.8826775843612980e-01 -1.4772630846149748e-01 0.0000000000000000e+00  9.9040455877402178e-01 -1.4941453251099632e-01 0.0000000000000000e+00  9.9807528176330240e-01 -1.5293679002615587e-01 0.0000000000000000e+00  1.0182718494963345e+00 -1.6188916394584649e-01 0.0000000000000000e+00  1.0302277648035720e+00 -1.6239851299776531e-01 0.0000000000000000e+00  1.0485795321493028e+00 -1.5654645701347869e-01 0.0000000000000000e+00  1.0572061018314809e+00 -1.4484262349536003e-01 0.0000000000000000e+00  1.0583919175164851e+00 -1.3336411128013273e-01 0.0000000000000000e+00  1.0527972167602406e+00 -1.2224591604849887e-01 0.0000000000000000e+00  1.0413160167017459e+00 -1.1566423029183731e-01 0.0000000000000000e+00  1.0264284453369945e+00 -1.2159408588432614e-01 0.0000000000000000e+00  1.0122859416270402e+00 -1.3227070296471566e-01 0.0000000000000000e+00  1.0105771227218203e+00 -1.4206814211689597e-01 0.0000000000000000e+00  1.0255294844407425e+00 -1.4882552645273739e-01 0.0000000000000000e+00  1.0471148101206691e+00 -1.4923558621393199e-01 0.0000000000000000e+00  1.0742334164242457e+00 -1.4780878778227821e-01 0.0000000000000000e+00  1.1012834244565612e+00 -1.4586172918330867e-01 0.0000000000000000e+00  1.1248225567189971e+00 -1.3712252060733920e-01 0.0000000000000000e+00  1.1373542940726922e+00 -1.2277970154119905e-01 0.0000000000000000e+00  1.1521306911620297e+00 -1.0163760604432398e-01 0.0000000000000000e+00  1.1656937570638322e+00 -8.1363831863898992e-02 0.0000000000000000e+00  1.1772138897367208e+00 -6.5093423206206411e-02 0.0000000000000000e+00  1.1942875727032154e+00 -4.7000961322376349e-02 0.0000000000000000e+00  1.2123310928931976e+00 -2.7895283143571547e-02 0.0000000000000000e+00  1.2225562755706074e+00 -8.3478423067030148e-03 0.0000000000000000e+00  1.2291330688023578e+00 1.3944021627354234e-02 0.0000000000000000e+00  1.2275980261482793e+00 3.2066607812385579e-02 0.0000000000000000e+00  1.2185662253972831e+00 5.1419981882859706e-02 0.0000000000000000e+00  1.2064934599608823e+00 6.2169121468430892e-02 0.0000000000000000e+00  1.2028542055543072e+00 6.5082808265087264e-02 0.0000000000000000e+00  1.1903047275827767e+00 7.9681548369962413e-02 0.0000000000000000e+00  1.1682601427773178e+00 9.1550454398357156e-02 0.0000000000000000e+00  1.1059674743836796e+00 1.0768047800962835e-01 0.0000000000000000e+00  1.0479661584948161e+00 1.1621527480323945e-01 0.0000000000000000e+00  9.8569229633673772e-01 1.0980714510499998e-01 0.0000000000000000e+00  9.5032688038730595e-01 1.0241887496410579e-01 0.0000000000000000e+00  9.1558087599552440e-01 9.9207910299747668e-02 0.0000000000000000e+00  8.7323535690454035e-01 9.5458660420070104e-02 0.0000000000000000e+00  8.1565261421823831e-01 8.5260345974913665e-02 0.0000000000000000e+00  7.8175360505626834e-01 7.3642355670964568e-02 0.0000000000000000e+00  7.7052448092893022e-01 6.8719533510526579e-02 0.0000000000000000e+00  7.6281276565579892e-01 6.9203354054346716e-02 0.0000000000000000e+00  1.1349236576385242e+00 -7.6389805214838125e-02 0.0000000000000000e+00  1.1822979072857718e+00 1.7211618463087761e-01 0.0000000000000000e+00  0.0000000000000000e+00 0.0000000000000000e+00 0.0000000000000000e+00  0.0000000000000000e+00 0.0000000000000000e+00 0.0000000000000000e+00  7.6064457409890618e-01 7.0550212516313993e-02 0.0000000000000000e+00  7.5857976800509130e-01 7.1604931616827572e-02 0.0000000000000000e+00  7.5528337267420242e-01 7.3000205085766198e-02 0.0000000000000000e+00  7.5030315987049201e-01 7.4902332436198857e-02 0.0000000000000000e+00  7.3460226050407207e-01 7.9581561763468742e-02 0.0000000000000000e+00  7.2280548997930782e-01 8.2501277798155179e-02 0.0000000000000000e+00  7.0548910549388677e-01 8.6069299104050659e-02 0.0000000000000000e+00  6.5213481762492986e-01 9.3729077340128836e-02 0.0000000000000000e+00  5.1456728510609839e-01 9.8424028567075522e-02 0.0000000000000000e+00  4.7848756457972141e-01 1.0092535444939063e-01 0.0000000000000000e+00  3.1741297270233554e-01 1.3831583078986401e-01 0.0000000000000000e+00  2.8559878151119916e-01 1.5871688381619919e-01 0.0000000000000000e+00  2.3505400391068229e-01 1.9655184819165880e-01 0.0000000000000000e+00  2.1933935426619780e-01 2.1088152623671350e-01 0.0000000000000000e+00  1.7588011752864252e-01 2.3043702586188256e-01 0.0000000000000000e+00  1.3861025534199839e-01 1.9854612636813204e-01 0.0000000000000000e+00  1.3180451404805898e-01 1.8233205337982278e-01 0.0000000000000000e+00  1.1332226603882420e-01 1.3801900661845315e-01 0.0000000000000000e+00  1.0189915170091252e-01 1.0966149474828452e-01 0.0000000000000000e+00  6.8654951070428044e-02 5.3995717015291329e-02 0.0000000000000000e+00  1.6780282999079028e-02 -3.8350392377239237e-02 0.0000000000000000e+00  1.0949408762077249e-01 -1.7414841917717772e-01 0.0000000000000000e+00  2.9494642239670316e-01 -2.2459951621272223e-01 0.0000000000000000e+00  3.4429751787393409e-01 -2.3068955055333737e-01 0.0000000000000000e+00  6.8413353936780719e-01 -2.5345442649109928e-01 0.0000000000000000e+00  7.7311884600051062e-01 -2.2868566321420344e-01 0.0000000000000000e+00  8.5624177540158719e-01 -1.4540616823811905e-01 0.0000000000000000e+00  9.7993264902064836e-01 -1.4962566373016167e-01 0.0000000000000000e+00  9.8809941971713844e-01 -1.4649382834586316e-01 0.0000000000000000e+00  9.9324780499367860e-01 -1.5057021197894063e-01 0.0000000000000000e+00  1.0044174809313327e+00 -1.5577834240165955e-01 0.0000000000000000e+00  1.0115417338257375e+00 -1.5916135199531264e-01 0.0000000000000000e+00  1.0380925707599200e+00 -1.6011592893579296e-01 0.0000000000000000e+00  1.0349377602902519e+00 -1.1768942426936489e-01 0.0000000000000000e+00  1.0157243378098404e+00 -1.4599865347597615e-01 0.0000000000000000e+00  1.1149753192157859e+00 -1.4105386497371941e-01 0.0000000000000000e+00  1.1596668475413456e+00 -8.9794075155039607e-02 0.0000000000000000e+00  1.1865915784144867e+00 -5.5330380196529777e-02 0.0000000000000000e+00  1.2265674333735022e+00 1.1609198826198028e-03 0.0000000000000000e+00  1.2234054971431572e+00 4.3629614044925290e-02 0.0000000000000000e+00  1.2116455635882519e+00 5.8766603499849954e-02 0.0000000000000000e+00  1.1981781316153379e+00 7.0532823357432189e-02 0.0000000000000000e+00  1.1447575415489639e+00 1.0372430139877159e-01 0.0000000000000000e+00  1.0169500045131785e+00 1.1287158692665254e-01 0.0000000000000000e+00  8.4192486619118456e-01 9.0089846040632748e-02 0.0000000000000000e+00  7.9379446839043477e-01 7.8533045097159665e-02 0.0000000000000000e+00  7.7436277370331907e-01 7.0336254300362097e-02 0.0000000000000000e+00  7.6822755144888366e-01 6.8397862902802323e-02 0.0000000000000000e+00  7.6596604415043124e-01 6.8598114238699562e-02 0.0000000000000000e+00  7.6417650424429862e-01 6.8883024425377748e-02 0.0000000000000000e+00  1.1724315159050693e+00 -3.5333976882046467e-02 0.0000000000000000e+00  1.2417527162579105e+00 3.8991083642287263e-03 0.0000000000000000e+00  1.3164910549456839e+00 2.6083886868587692e-02 0.0000000000000000e+00  1.3674332029619309e+00 3.6213645969930111e-02 0.0000000000000000e+00  1.3898096848251609e+00 2.7515371062021718e-02 0.0000000000000000e+00  1.3645457843410596e+00 1.5649635682538385e-02 0.0000000000000000e+00  1.3017519402064541e+00 2.9726668782772827e-02 0.0000000000000000e+00  1.2437577734416090e+00 7.6627067021411283e-02 0.0000000000000000e+00  1.2070691043053889e+00 1.3145587314199361e-01 0.0000000000000000e+00  1.0877855423124969e+00 1.9552911217839233e-01 0.0000000000000000e+00  9.9410939043986635e-01 2.1320660343387274e-01 0.0000000000000000e+00  9.0570292654342277e-01 2.2148359313989346e-01 0.0000000000000000e+00  8.1977284810698337e-01 2.1345095052783783e-01 0.0000000000000000e+00  7.2653792271315265e-01 1.8919223404553301e-01 0.0000000000000000e+00  6.2299597103420246e-01 1.6081012975364253e-01 0.0000000000000000e+00  4.9936450503974217e-01 1.2773296009177668e-01 0.0000000000000000e+00  3.4782194778177833e-01 9.7961946051485616e-02 0.0000000000000000e+00  1.8299108897500119e-01 7.0817558192542193e-02 0.0000000000000000e+00  1.9094040680686478e-01 -6.5630617814794609e-02 0.0000000000000000e+00  3.6956487650029823e-01 -1.1473468926981524e-01 0.0000000000000000e+00  5.1120574765241444e-01 -1.9827828676407624e-01 0.0000000000000000e+00  5.8483287095190506e-01 -2.6096178439311707e-01 0.0000000000000000e+00  6.4034666839831422e-01 -2.3949492994203461e-01 0.0000000000000000e+00  7.2854903617914479e-01 -1.7726701264678893e-01 0.0000000000000000e+00  8.3879355338242112e-01 -1.2987022223014011e-01 0.0000000000000000e+00  9.4875715856251475e-01 -1.0878170388222572e-01 0.0000000000000000e+00  1.0452980020907623e+00 -9.9870010974748277e-02 0.0000000000000000e+00  0.0000000000000000e+00 0.0000000000000000e+00 0.0000000000000000e+00  0.0000000000000000e+00 0.0000000000000000e+00 0.0000000000000000e+00  0.0000000000000000e+00 0.0000000000000000e+00 0.0000000000000000e+00  0.0000000000000000e+00 0.0000000000000000e+00 0.0000000000000000e+00  0.0000000000000000e+00 0.0000000000000000e+00 0.0000000000000000e+00  0.0000000000000000e+00 0.0000000000000000e+00 0.0000000000000000e+00  0.0000000000000000e+00 0.0000000000000000e+00 0.0000000000000000e+00  0.0000000000000000e+00 0.0000000000000000e+00 0.0000000000000000e+00  0.0000000000000000e+00 0.0000000000000000e+00 0.0000000000000000e+00  1.1436581805182802e+00 -1.1328015978066813e-01 0.0000000000000000e+00  1.0558657250943217e+00 -5.1505791028339194e-02 0.0000000000000000e+00  1.4730221208023095e-01 2.4278931849850520e-02 0.0000000000000000e+00  1.7955843423721976e-01 -3.0448251580692899e-02 0.0000000000000000e+00  9.3948971479847754e-01 1.6387532596294274e-01 0.0000000000000000e+00  7.3581318727633216e-01 1.4509537343937207e-01 0.0000000000000000e+00  1.2790712046412565e+00 3.4634142513794777e-02 0.0000000000000000e+00  7.0699855431183456e-01 -1.8603349825837165e-01 0.0000000000000000e+00  1.9961268043435794e-02 8.4672014374781203e-03 0.0000000000000000e+00  4.4348691201017093e-01 8.0048931305743837e-02 0.0000000000000000e+00  5.1976176312005629e-01 -2.1357141896652507e-01 0.0000000000000000e+00  9.0659894557715101e-02 1.8990071183219964e-02 0.0000000000000000e+00  1.1378425764559483e-01 -1.9248328239764811e-02 0.0000000000000000e+00  1.0945918009695850e+00 -7.4099471438024186e-02 0.0000000000000000e+00  1.1312952437856574e+00 1.6925412240971915e-01 0.0000000000000000e+00  1.8688479594351570e-01 9.9714268228632663e-02 0.0000000000000000e+00  9.9987632146057881e-01 -1.4666245015999482e-01 0.0000000000000000e+00  9.9658483820579935e-01 -1.4432703101974559e-01 0.0000000000000000e+00  1.0244214886289584e+00 -1.4245390207052477e-01 0.0000000000000000e+00  1.1054486296694419e+00 -1.1490868786991938e-01 0.0000000000000000e+00  1.7802763630646454e-01 1.9303731706183527e-01 0.0000000000000000e+00  7.5996772750318431e-01 7.0204916006476450e-02 0.0000000000000000e+00  5.0210944312061294e-02 -4.0529406862802562e-02 0.0000000000000000e+00  1.0501808638458610e+00 -6.6115489264217064e-02 0.0000000000000000e+00  8.5905669336206769e-01 -1.1380749002569844e-01 0.0000000000000000e+00  1.2178969648840685e+00 -1.0346536548211020e-03 0.0000000000000000e+00  1.0714288705911976e+00 -6.3192656157361679e-02 0.0000000000000000e+00  1.1221146842707783e+00 9.6907727578242536e-02 0.0000000000000000e+00  2.5143236416590631e-01 1.8939204182767060e-02 0.0000000000000000e+00  3.2710183670414911e-01 -6.3280400875812534e-02 0.0000000000000000e+00  6.3824598954371914e-01 1.4643636089913820e-01 0.0000000000000000e+00  1.0489522435697323e+00 1.6998003463017744e-01 0.0000000000000000e+00  6.7418974398754508e-02 1.1852496375527001e-02 0.0000000000000000e+00  8.4270694480155695e-01 1.7830243046175207e-01 0.0000000000000000e+00  8.8278118071752987e-01 1.4042987396795659e-01 0.0000000000000000e+00  2.2842146591069140e-01 -3.3879367494436493e-03 0.0000000000000000e+00  2.5816061064514639e-01 -4.8344405727839282e-02 0.0000000000000000e+00  5.7231336693498051e-02 3.1245337072028315e-02 0.0000000000000000e+00  7.1476951395340646e-02 -2.9662547278458424e-02 0.0000000000000000e+00  6.1230924161053957e-01 -2.3864717992218365e-01 0.0000000000000000e+00  1.3313893067712057e+00 3.3006639729767799e-02 0.0000000000000000e+00  7.6328453497113891e-01 1.0847408563535169e-01 0.0000000000000000e+00  1.2415909279939119e+00 4.7358561323267129e-02 0.0000000000000000e+00  1.2124441097939354e+00 9.8573661374700486e-03 0.0000000000000000e+00  7.1972541488122643e-01 -1.7484711864536268e-01 0.0000000000000000e+00  1.5338072454383931e-02 1.7918974089887218e-03 0.0000000000000000e+00  4.5159263197198973e-01 9.3905002105244134e-02 0.0000000000000000e+00  5.4755958272406136e-01 -2.3452788065808522e-01 0.0000000000000000e+00  1.3164070820235813e-01 7.8188583011185184e-02 0.0000000000000000e+00  1.0908127785997128e+00 -1.2626337279889038e-01 0.0000000000000000e+00  1.9116662930235803e-01 1.5022773428901073e-01 0.0000000000000000e+00  1.0227921135440605e+00 -1.3471113551825062e-01 0.0000000000000000e+00  9.7771474560343530e-01 -1.3428762192325988e-01 0.0000000000000000e+00  1.0050637494628163e+00 -1.4549535584386461e-01 0.0000000000000000e+00  1.0001412495266100e+00 -1.4664710421728480e-01 0.0000000000000000e+00  1.0391483722184343e+00 -1.3552176557702361e-01 0.0000000000000000e+00  1.1285212933321480e+00 -1.0956454539497597e-01 0.0000000000000000e+00  9.8976000277781973e-01 -1.4630561713977749e-01 0.0000000000000000e+00  1.1148402839774640e+00 -1.2755281622941192e-01 0.0000000000000000e+00  9.9266165574893506e-01 -1.4685285945495374e-01 0.0000000000000000e+00  1.0305920132499100e+00 -1.5313249923011446e-01 0.0000000000000000e+00  1.0198999649112952e+00 -1.3306948326729279e-01 0.0000000000000000e+00  1.5631222749679971e-01 1.8143341344431133e-01 0.0000000000000000e+00  1.8892587349480866e-01 2.1207669629000725e-01 0.0000000000000000e+00  1.6321853537546971e-01 2.0768646350339670e-01 0.0000000000000000e+00  7.5305080657747669e-01 7.2497956038433981e-02 0.0000000000000000e+00  7.6259658709995715e-01 6.9518023980159604e-02 0.0000000000000000e+00  7.6034691296461876e-01 7.0140118376954261e-02 0.0000000000000000e+00  9.3896481378034036e-01 -9.2219187737046376e-02 0.0000000000000000e+00  1.1776614060749615e+00 -2.7210580301484558e-02 0.0000000000000000e+00  4.1835412331420789e-02 3.4239227445507704e-02 0.0000000000000000e+00  1.2699172509253902e+00 4.4270764694664018e-02 0.0000000000000000e+00  1.3559316040068989e-01 4.2582899864240364e-03 0.0000000000000000e+00  9.3892814626593823e-01 -8.9239999802241704e-02 0.0000000000000000e+00  1.3033959542664166e+00 2.5957880017375642e-02 0.0000000000000000e+00  1.1493512412170515e+00 -2.0369626502889576e-02 0.0000000000000000e+00  3.7295318817773548e-01 7.0618774253957198e-02 0.0000000000000000e+00  2.0522184563219550e-02 -2.0003959157090013e-02 0.0000000000000000e+00  3.2157193050813437e-01 2.2634600590662707e-02 0.0000000000000000e+00  5.1667978245486683e-02 -3.9147256642314499e-02 0.0000000000000000e+00  1.1235544917296296e+00 1.2784916293490883e-01 0.0000000000000000e+00  7.6189157713615407e-01 -1.6094455473701966e-01 0.0000000000000000e+00  1.0557914005591197e-01 -6.8585755872428390e-03 0.0000000000000000e+00  6.3843112035635841e-01 1.2253197538060565e-01 0.0000000000000000e+00  1.1166581340714767e+00 -5.6208863146840073e-02 0.0000000000000000e+00  7.1602445982941776e-01 1.6935525123838746e-01 0.0000000000000000e+00  4.2438818624085006e-01 -1.3554605769509415e-01 0.0000000000000000e+00  1.0286244814399623e+00 1.1628645331969967e-01 0.0000000000000000e+00  9.4703664702497592e-01 1.9986113837628336e-01 0.0000000000000000e+00  5.4991600050908218e-01 1.2505119976929130e-01 0.0000000000000000e+00  2.1377748635640535e-02 -1.6579801653992098e-02 0.0000000000000000e+00  1.0264863348680366e+00 -8.3157577625994933e-02 0.0000000000000000e+00  1.0526538246424280e+00 -9.4206183891708387e-02 0.0000000000000000e+00  9.0336990564573907e-02 -1.3549257753997197e-02 0.0000000000000000e+00  4.5288073805397322e-01 -1.5873248407685620e-01 0.0000000000000000e+00  6.0240233529794729e-01 -2.3004361575512289e-01 0.0000000000000000e+00  1.1297998727454996e+00 -5.6438274047245399e-02 0.0000000000000000e+00  1.8001820010383365e-01 3.0650415559903593e-02 0.0000000000000000e+00  1.0334499273328289e-01 -5.4675527479276377e-02 0.0000000000000000e+00  1.2420266058643163e+00 4.0380270256759235e-02 0.0000000000000000e+00  8.0697578476693654e-01 1.3657045907684001e-01 0.0000000000000000e+00  2.9636817194749390e-02 -1.0256574426446535e-02 0.0000000000000000e+00  1.3451523936319426e-01 9.7269648693671731e-03 0.0000000000000000e+00  8.8005307426284329e-01 1.6564509453836690e-01 0.0000000000000000e+00  8.4004906713276462e-01 1.1316448107545042e-01 0.0000000000000000e+00  9.2222450334693662e-01 1.2725080711902956e-01 0.0000000000000000e+00  6.1646925840268840e-01 -2.4777658186122309e-01 0.0000000000000000e+00  1.1587587046330776e+00 6.0492413390379744e-02 0.0000000000000000e+00  5.5524825972868996e-01 -2.3627319678168768e-01 0.0000000000000000e+00  2.5453208142196393e-01 4.1875337880173093e-02 0.0000000000000000e+00  2.5709695126204490e-01 -1.0753500210391849e-01 0.0000000000000000e+00  7.6924336761446332e-01 8.6828885253503629e-02 0.0000000000000000e+00  7.5985140334596635e-01 -1.7148314540161050e-01 0.0000000000000000e+00  5.0515242549567241e-01 1.1970536403480786e-01 0.0000000000000000e+00  1.1369846439550462e+00 -9.0722175475084460e-02 0.0000000000000000e+00  1.4965372976372643e-