<?xml version="1.0"?>
<VTKFile type="UnstructuredGrid"  version="0.1"  >
<UnstructuredGrid>
<Piece  NumberOfPoints="2868" NumberOfCells="5400">
<Points>
<DataArray  type="Float64"  NumberOfComponents="3"  format="ascii">0.534923 0.326073 0  0.510642 0.314196 0  0.466125 0.293082 0  0.436448 0.281205 0  0.409468 0.275927 0  0.368998 0.270648 0  0.35281 0.275927 0  0.381139 0.302319 0  0.405421 0.326073 0  0.410817 0.33531 0  0.408119 0.349826 0  0.400025 0.357744 0  0.375743 0.368301 0  0.329878 0.392055 0  0.297502 0.432963 0  0.282663 0.476511 0  0.285361 0.524018 0  0.298851 0.572845 0  0.317737 0.6045160000000001 0  0.337972 0.6361869999999999 0  0.360904 0.674457 0  0.368998 0.69953 0  0.359555 0.7219640000000001 0  0.360904 0.757594 0  0.370347 0.766831 0  0.381139 0.762872 0  0.390582 0.741758 0  0.404072 0.720644 0  0.424307 0.707448 0  0.447239 0.702169 0  0.480964 0.704808 0  0.479615 0.6889729999999999 0  0.468823 0.675776 0  0.447239 0.6691780000000001 0  0.428354 0.6691780000000001 0  0.410817 0.6639 0  0.404072 0.653343 0  0.395978 0.628269 0  0.387884 0.59132 0  0.389233 0.576804 0  0.397327 0.557009 0  0.410817 0.547772 0  0.424307 0.546452 0  0.437797 0.55305 0  0.44589 0.5662469999999999 0  0.441843 0.582082 0  0.439145 0.5979179999999999 0  0.449937 0.609795 0  0.468823 0.603196 0  0.479615 0.59 0  0.489058 0.570205 0  0.494454 0.546452 0  0.505246 0.522699 0  0.522783 0.509502 0  0.55246 0.494986 0  0.586185 0.484429 0  0.615863 0.48047 0  0.64554 0.473872 0  0.6671240000000001 0.461995 0  0.683312 0.451438 0  0.696802 0.435603 0  0.703547 0.417128 0  0.7116400000000001 0.393374 0  0.7183850000000001 0.37226 0  0.7251300000000001 0.364342 0  0.739969 0.353785 0  0.7453650000000001 0.344548 0  0.7453650000000001 0.327393 0  0.737271 0.318155 0  0.7183850000000001 0.316835 0  0.7008490000000001 0.319475 0  0.677916 0.318155 0  0.650936 0.316835 0  0.610467 0.318155 0  0.57944 0.324753 0  0.559205 0.328712 0  0.5389699999999999 0.326073 0  1 1 0  1 0 0  0 0 0  0 1 0  0.532238 0.32476 0  0.528748 0.323052 0  0.52421 0.320833 0  0.518311 0.317947 0  0.503447 0.310783 0  0.494093 0.306347 0  0.481933 0.30058 0  0.452151 0.28749 0  0.392327 0.273691 0  0.379141 0.271971 0  0.360474 0.283066 0  0.369797 0.291752 0  0.391424 0.31238 0  0.399335 0.32012 0  0.40958 0.341964 0  0.393939 0.36039 0  0.386028 0.36383 0  0.364248 0.374254 0  0.349304 0.381994 0  0.315801 0.409841 0  0.292986 0.551616 0  0.350934 0.657818 0  0.360127 0.737055 0  0.360566 0.748664 0  0.385245 0.753692 0  0.396447 0.732578 0  0.466301 0.703661 0  0.459439 0.672908 0  0.418442 0.666195 0  0.400553 0.642441 0  0.39255 0.612619 0  0.389913 0.60058 0  0.392752 0.568197 0  0.444131 0.573132 0  0.458149 0.606926 0  0.5005540000000001 0.533026 0  0.571522 0.489019 0  0.632637 0.476741 0  0.689177 0.444553 0  0.708121 0.403702 0  0.715453 0.38144 0  0.732406 0.359166 0  0.7453650000000001 0.337089 0  0.72906 0.317581 0  0.629879 0.317522 0  0.59293 0.321884 0  0.568003 0.326991 0  0.55202 0.327775 0  0.546493 0.327054 0  0.542241 0.326499 0  1 0.9 0  1 0.8 0  1 0.7 0  1 0.6 0  1 0.5 0  1 0.4 0  1 0.3 0  1 0.2 0  1 0.1 0  0.9 0 0  0.8 0 0  0.7 0 0  0.6 0 0  0.5 0 0  0.4 0 0  0.3 0 0  0.2 0 0  0.1 0 0  0.1 1 0  0.2 1 0  0.3 1 0  0.4 1 0  0.5 1 0  0.6 1 0  0.7 1 0  0.8 1 0  0.9 1 0  0 0.1 0  0 0.2 0  0 0.3 0  0 0.4 0  0 0.5 0  0 0.6 0  0 0.7 0  0 0.8 0  0 0.9 0  0.535686 0.5031910000000001 0  0.753987 0.733359 0  0.167145 0.741436 0  0.173378 0.257204 0  0.733497 0.159862 0  0.554096 0.15788 0  0.849187 0.479053 0  0.488793 0.838452 0  0.138507 0.5592 0  0.30686 0.154944 0  0.348904 0.890523 0  0.058006 0.065099 0  0.06984899999999999 0.937917 0  0.93633 0.939704 0  0.934625 0.053613 0  0.343397 0.333452 0  0.473272 0.639943 0  0.433266 0.638072 0  0.415174 0.58269 0  0.533435 0.545042 0  0.390848 0.340652 0  0.53655 0.320242 0  0.127966 0.393775 0  0.83861 0.850455 0  0.635242 0.8551299999999999 0  0.852158 0.633441 0  0.653427 0.626848 0  0.861226 0.24292 0  0.166128 0.12976 0  0.216875 0.8698709999999999 0  0.458305 0.11179 0  0.84446 0.101633 0  0.202024 0.642528 0  0.644825 0.115855 0  0.671342 0.218358 0  0.251354 0.286186 0  0.262388 0.75153 0  0.063044 0.751571 0  0.068189 0.242962 0  0.435781 0.9053949999999999 0  0.934144 0.451133 0  0.568393 0.237622 0  0.814984 0.395506 0  0.752951 0.517227 0  0.456254 0.780699 0  0.073352 0.531116 0  0.337731 0.206071 0  0.363213 0.960371 0  0.330742 0.363592 0  0.516613 0.55705 0  0.369057 0.332992 0  0.500926 0.617309 0  0.498004 0.665534 0  0.412142 0.61178 0  0.454233 0.6366039999999999 0  0.422782 0.567496 0  0.541193 0.5214800000000001 0  0.439761 0.65557 0  0.5163 0.533672 0  0.414775 0.64562 0  0.40073 0.576135 0  0.430362 0.5880339999999999 0  0.385432 0.351492 0  0.400298 0.335397 0  0.398325 0.348194 0  0.528702 0.314885 0  0.540814 0.322334 0  0.534477 0.322953 0  0.619095 0.743583 0  0.885162 0.737972 0  0.08076 0.668849 0  0.90734 0.36634 0  0.09468699999999999 0.868937 0  0.759838 0.912152 0  0.901518 0.540898 0  0.747285 0.607479 0  0.229182 0.071641 0  0.06915399999999999 0.450091 0  0.244775 0.203309 0  0.076534 0.331755 0  0.897847 0.167826 0  0.578909 0.911415 0  0.07713299999999999 0.146341 0  0.477215 0.203448 0  0.922631 0.869341 0  0.517415 0.074785 0  0.297026 0.827793 0  0.7832710000000001 0.246505 0  0.74519 0.061079 0  0.36033 0.069068 0  0.210313 0.475228 0  0.859426 0.928758 0  0.5745479999999999 0.609182 0  0.243069 0.383398 0  0.283099 0.934598 0  0.417416 0.843141 0  0.643942 0.553164 0  0.112687 0.079336 0  0.281357 0.658386 0  0.765043 0.436177 0  0.611361 0.198486 0  0.234496 0.58911 0  0.206479 0.702638 0  0.679608 0.155818 0  0.62682 0.259978 0  0.690538 0.264164 0  0.448938 0.956308 0  0.808154 0.328403 0  0.379583 0.91913 0  0.308083 0.297769 0  0.312358 0.730249 0  0.563101 0.278576 0  0.435597 0.746198 0  0.385475 0.225229 0  0.572248 0.518034 0  0.357864 0.35422 0  0.497647 0.641694 0  0.458101 0.655768 0  0.360474 0.310727 0  0.467038 0.620139 0  0.47798 0.659909 0  0.41102 0.628072 0  0.48324 0.609015 0  0.427544 0.617941 0  0.388633 0.328253 0  0.405336 0.599404 0  0.408351 0.565178 0  0.42395 0.600985 0  0.431562 0.576523 0  0.424905 0.6551979999999999 0  0.398064 0.58782 0  0.427739 0.557934 0  0.5192909999999999 0.303443 0  0.53142 0.320293 0  0.5449000000000001 0.323642 0  0.537166 0.323513 0  0.153974 0.920841 0  0.9181859999999999 0.67343 0  0.759946 0.820588 0  0.5375259999999999 0.783091 0  0.816532 0.545843 0  0.813991 0.178083 0  0.836774 0.702023 0  0.149815 0.318856 0  0.662287 0.923338 0  0.680146 0.791192 0  0.708961 0.663172 0  0.9372779999999999 0.287318 0  0.574622 0.6881660000000001 0  0.5894740000000001 0.076262 0  0.502822 0.926683 0  0.222269 0.811068 0  0.380457 0.164786 0  0.15321 0.684154 0  0.458063 0.051413 0  0.161702 0.056026 0  0.199351 0.198818 0  0.298946 0.09553200000000001 0  0.902465 0.795949 0  0.121139 0.791477 0  0.906269 0.112287 0  0.056109 0.822332 0  0.512172 0.13237 0  0.940964 0.741805 0  0.888887 0.408777 0  0.354543 0.825964 0  0.808736 0.068638 0  0.068507 0.394071 0  0.719105 0.563843 0  0.247287 0.149664 0  0.293062 0.237128 0  0.240524 0.434997 0  0.141255 0.623289 0  0.945202 0.160621 0  0.502914 0.247629 0  0.144669 0.480811 0  0.665025 0.060817 0  0.728047 0.224344 0  0.861995 0.313312 0  0.200068 0.534235 0  0.253262 0.965623 0  0.893804 0.49307 0  0.604391 0.572456 0  0.947088 0.345347 0  0.439372 0.227307 0  0.629847 0.159823 0  0.273405 0.880181 0  0.302744 0.776823 0  0.781502 0.295365 0  0.275342 0.349602 0  0.7283849999999999 0.472798 0  0.229136 0.246478 0  0.807794 0.480346 0  0.709476 0.112786 0  0.275506 0.694991 0  0.771674 0.394419 0  0.449715 0.861802 0  0.419159 0.799696 0  0.674851 0.503139 0  0.280443 0.61016 0  0.572443 0.192538 0  0.393113 0.87525 0  0.405555 0.948428 0  0.330942 0.934103 0  0.540509 0.597101 0  0.312763 0.6689310000000001 0  0.254368 0.540179 0  0.595265 0.25915 0  0.606679 0.234099 0  0.657131 0.279138 0  0.722458 0.279478 0  0.333 0.308056 0  0.351529 0.246142 0  0.455714 0.7257940000000001 0  0.585239 0.295143 0  0.340062 0.72492 0  0.545593 0.293773 0  0.555449 0.545426 0  0.414311 0.737314 0  0.590854 0.502323 0  0.350507 0.368444 0  0.484423 0.625665 0  0.483899 0.674542 0  0.378137 0.317274 0  0.446416 0.646404 0  0.373532 0.347654 0  0.446876 0.619769 0  0.466106 0.666068 0  0.437545 0.609254 0  0.434988 0.565726 0  0.41462 0.656829 0  0.418803 0.556961 0  0.398425 0.327446 0  0.517803 0.310421 0  0.549516 0.322918 0  0.57701 0.842889 0  0.8291269999999999 0.773906 0  0.643235 0.684732 0  0.134281 0.207734 0  0.865997 0.055966 0  0.680959 0.723345 0  0.165229 0.8415550000000001 0  0.54558 0.959672 0  0.783726 0.656439 0  0.913315 0.595533 0  0.699439 0.860667 0  0.785839 0.125076 0  0.551673 0.037713 0  0.9200970000000001 0.223214 0  0.206406 0.299726 0  0.087064 0.596401 0  0.935644 0.394252 0  0.964557 0.252582 0  0.230124 0.928346 0  0.120579 0.271764 0  0.8572149999999999 0.524082 0  0.7670979999999999 0.5551469999999999 0  0.936094 0.507131 0  0.804064 0.59585 0  0.700565 0.608273 0  0.429773 0.174231 0  0.117746 0.727333 0  0.5389620000000001 0.730231 0  0.862761 0.359173 0  0.821444 0.284046 0  0.193552 0.35818 0  0.234923 0.505555 0  0.193209 0.421217 0  0.220144 0.755896 0  0.594015 0.131642 0  0.283813 0.195855 0  0.517519 0.213961 0  0.553509 0.639116 0  0.280391 0.378018 0  0.852183 0.436817 0  0.746983 0.197173 0  0.821806 0.221318 0  0.449853 0.828453 0  0.883758 0.453926 0  0.183484 0.589542 0  0.348384 0.129314 0  0.255254 0.838525 0  0.504849 0.798516 0  0.320344 0.863432 0  0.611669 0.525425 0  0.265864 0.804962 0  0.72056 0.521442 0  0.613372 0.6101220000000001 0  0.481262 0.881068 0  0.655778 0.191988 0  0.701921 0.196918 0  0.5658260000000001 0.5731810000000001 0  0.46914 0.240927 0  0.343219 0.173284 0  0.888786 0.278502 0  0.244113 0.6750930000000001 0  0.739546 0.417914 0  0.784023 0.355942 0  0.326805 0.265549 0  0.248616 0.6
[...]
<PointData  Vectors="f_21"> 
<DataArray  type="Float64"  Name="f_21"  NumberOfComponents="3" format="ascii">1.4670553981601293e+00 5.2089263735511082e-01 0.0000000000000000e+00  1.4113086853259731e+00 5.4393522045051113e-01 0.0000000000000000e+00  1.2392676936571558e+00 5.6935897736483454e-01 0.0000000000000000e+00  1.0886417297543416e+00 5.6461740257325799e-01 0.0000000000000000e+00  9.4584048606174820e-01 5.3899068867627320e-01 0.0000000000000000e+00  7.0827927835802451e-01 4.8993929681438814e-01 0.0000000000000000e+00  5.6535392994805700e-01 4.4249407192300050e-01 0.0000000000000000e+00  3.9340573764517234e-01 5.6053392012797731e-01 0.0000000000000000e+00  2.9564677259733646e-01 6.5551272632759305e-01 0.0000000000000000e+00  2.5779990857348539e-01 6.7776631825251599e-01 0.0000000000000000e+00  1.9794857042557754e-01 6.6660082103040186e-01 0.0000000000000000e+00  1.6497955834980496e-01 6.3260918504417496e-01 0.0000000000000000e+00  1.2381324561243578e-01 5.2545122112758458e-01 0.0000000000000000e+00  6.4745922628434815e-02 3.1109923756670366e-01 0.0000000000000000e+00  9.7090231901008732e-03 1.5419558263689340e-01 0.0000000000000000e+00  -1.8536308118829600e-02 4.0930810232557180e-02 0.0000000000000000e+00  -2.4808406805085587e-02 -6.2753367152510189e-02 0.0000000000000000e+00  -1.2837314069684488e-02 -1.8245367935541718e-01 0.0000000000000000e+00  2.3692548783408918e-02 -2.9657443765826363e-01 0.0000000000000000e+00  9.2143761666785604e-02 -4.2051465794171589e-01 0.0000000000000000e+00  2.2142955145802826e-01 -5.6880818084246321e-01 0.0000000000000000e+00  3.2917562893258129e-01 -6.2637450849654763e-01 0.0000000000000000e+00  4.3312733952822374e-01 -6.1535670296151301e-01 0.0000000000000000e+00  7.4568676404448242e-01 -6.9212458117504705e-01 0.0000000000000000e+00  9.9973934002943221e-01 -7.7980752064028647e-01 0.0000000000000000e+00  1.2068812574105221e+00 -8.0720345018220430e-01 0.0000000000000000e+00  1.5222148823743551e+00 -8.0523605502576168e-01 0.0000000000000000e+00  1.6801471298660975e+00 -7.4184242915079235e-01 0.0000000000000000e+00  1.7492370243366724e+00 -6.6945707229232110e-01 0.0000000000000000e+00  1.7846802883580177e+00 -6.1957699655598331e-01 0.0000000000000000e+00  1.9067747763234233e+00 -6.4719446012008763e-01 0.0000000000000000e+00  2.1003278770162455e+00 -7.0646589208106836e-01 0.0000000000000000e+00  2.2027082579264277e+00 -7.8103420484200803e-01 0.0000000000000000e+00  2.2431859130382907e+00 -9.1166924026862683e-01 0.0000000000000000e+00  2.2406326677309956e+00 -1.0314074880379647e+00 0.0000000000000000e+00  2.2733711744852845e+00 -1.1439716636497190e+00 0.0000000000000000e+00  2.3402275599719866e+00 -1.1873471883406015e+00 0.0000000000000000e+00  2.4998839559258790e+00 -1.2414986267443715e+00 0.0000000000000000e+00  2.7394984788611239e+00 -1.2958025401437725e+00 0.0000000000000000e+00  2.8333681628275684e+00 -1.2869931839848539e+00 0.0000000000000000e+00  2.9606969173820343e+00 -1.2347358951633807e+00 0.0000000000000000e+00  3.0199622901724119e+00 -1.1480651029148601e+00 0.0000000000000000e+00  3.0284571396358300e+00 -1.0614086230668380e+00 0.0000000000000000e+00  2.9860966273629406e+00 -9.7454476002414869e-01 0.0000000000000000e+00  2.9011047584907343e+00 -9.2214974599189981e-01 0.0000000000000000e+00  2.7988401954814544e+00 -9.4745818292240191e-01 0.0000000000000000e+00  2.6945622710370847e+00 -9.6343340158438773e-01 0.0000000000000000e+00  2.6082750735433371e+00 -8.9138923082333654e-01 0.0000000000000000e+00  2.6286692627003347e+00 -7.7054172421781519e-01 0.0000000000000000e+00  2.6815300281854739e+00 -7.0425458903297855e-01 0.0000000000000000e+00  2.7585112434269665e+00 -6.4871373599003002e-01 0.0000000000000000e+00  2.8476693824602086e+00 -6.1756920058739051e-01 0.0000000000000000e+00  2.9341095552862515e+00 -5.7101691093761986e-01 0.0000000000000000e+00  2.9794907495980967e+00 -5.0176701968514104e-01 0.0000000000000000e+00  3.0216964236545518e+00 -3.8736939433327866e-01 0.0000000000000000e+00  3.0424214734395121e+00 -2.6300262499574933e-01 0.0000000000000000e+00  3.0351537334367586e+00 -1.5529003122150764e-01 0.0000000000000000e+00  3.0210546472136710e+00 -4.1743762935152202e-02 0.0000000000000000e+00  3.0106022587261005e+00 4.2882306955019066e-02 0.0000000000000000e+00  2.9897996009102776e+00 1.1847350229628895e-01 0.0000000000000000e+00  2.9525941217092235e+00 1.9613288794901038e-01 0.0000000000000000e+00  2.8944746090092237e+00 2.5705405959085498e-01 0.0000000000000000e+00  2.8111658337263341e+00 3.1126945432885234e-01 0.0000000000000000e+00  2.7306789459700358e+00 3.3425788253180216e-01 0.0000000000000000e+00  2.7042459218655153e+00 3.3087358637488101e-01 0.0000000000000000e+00  2.6460396509363564e+00 3.4832191869362522e-01 0.0000000000000000e+00  2.5653872393717263e+00 3.7326062459392972e-01 0.0000000000000000e+00  2.3682342508870846e+00 4.1642678314954823e-01 0.0000000000000000e+00  2.2061564164931302e+00 4.5082410945408474e-01 0.0000000000000000e+00  2.0507246580723790e+00 4.6407995727077606e-01 0.0000000000000000e+00  1.9671093731359315e+00 4.7118037027945031e-01 0.0000000000000000e+00  1.8776631640951791e+00 4.9295288739900162e-01 0.0000000000000000e+00  1.7667225477142692e+00 5.1386932312560873e-01 0.0000000000000000e+00  1.6140256882883643e+00 5.2485068173069938e-01 0.0000000000000000e+00  1.5243077800830827e+00 5.1474463438154305e-01 0.0000000000000000e+00  1.4938000162661693e+00 5.1093370517476544e-01 0.0000000000000000e+00  1.4702263400642299e+00 5.1848011006880534e-01 0.0000000000000000e+00  1.7686592638515297e+00 5.0354506207837524e-01 0.0000000000000000e+00  1.5399759195167313e+00 -1.6810025070297249e-01 0.0000000000000000e+00  0.0000000000000000e+00 0.0000000000000000e+00 0.0000000000000000e+00  0.0000000000000000e+00 0.0000000000000000e+00 0.0000000000000000e+00  1.4636174480163688e+00 5.2354556798469298e-01 0.0000000000000000e+00  1.4573616417271051e+00 5.2701850086642577e-01 0.0000000000000000e+00  1.4475839347269270e+00 5.3146539960378669e-01 0.0000000000000000e+00  1.4330770380169049e+00 5.3713347707258297e-01 0.0000000000000000e+00  1.3888528174956056e+00 5.4950356847171322e-01 0.0000000000000000e+00  1.3566116996420710e+00 5.5634710351543704e-01 0.0000000000000000e+00  1.3102587398252989e+00 5.6311283642753696e-01 0.0000000000000000e+00  1.1732388946112215e+00 5.6987306668096827e-01 0.0000000000000000e+00  8.5704502271313798e-01 5.1731298714912155e-01 0.0000000000000000e+00  7.8351418306558729e-01 5.0213323382245023e-01 0.0000000000000000e+00  4.9558628591109288e-01 4.8510154941189859e-01 0.0000000000000000e+00  4.4276701239454180e-01 5.1956231868328639e-01 0.0000000000000000e+00  3.5125434570429337e-01 5.9914349152051594e-01 0.0000000000000000e+00  3.1987287461522806e-01 6.3067079700723361e-01 0.0000000000000000e+00  2.3045151098520514e-01 6.7267663053315507e-01 0.0000000000000000e+00  1.5403992099689795e-01 6.0648649269714305e-01 0.0000000000000000e+00  1.4028711799801563e-01 5.7180941229881332e-01 0.0000000000000000e+00  1.0389048975516456e-01 4.7231471798703956e-01 0.0000000000000000e+00  8.3058762247274848e-02 4.0291392873847415e-01 0.0000000000000000e+00  3.6811035329224966e-02 2.4117238137585639e-01 0.0000000000000000e+00  -2.0421965652427564e-02 -1.2612566332335559e-01 0.0000000000000000e+00  1.5822368870664794e-01 -5.0488914850158617e-01 0.0000000000000000e+00  5.3021038898239436e-01 -6.5257428545334151e-01 0.0000000000000000e+00  6.3077655418454870e-01 -6.8079461031245647e-01 0.0000000000000000e+00  1.3878363229422386e+00 -8.2271853888486390e-01 0.0000000000000000e+00  1.6011947639696373e+00 -7.7677002291591235e-01 0.0000000000000000e+00  1.8230024389427790e+00 -6.0990433230880259e-01 0.0000000000000000e+00  2.2215992576312513e+00 -8.3693571525253851e-01 0.0000000000000000e+00  2.2589547715494271e+00 -1.0950266769381396e+00 0.0000000000000000e+00  2.4093013716686063e+00 -1.2106348213258213e+00 0.0000000000000000e+00  2.6011146118340807e+00 -1.2649661680948994e+00 0.0000000000000000e+00  2.6793622877486531e+00 -1.2825647236148836e+00 0.0000000000000000e+00  2.8888107271320895e+00 -1.2642303429772317e+00 0.0000000000000000e+00  2.8567210993432499e+00 -9.3329583693426121e-01 0.0000000000000000e+00  2.6179569727494845e+00 -8.3809551439706864e-01 0.0000000000000000e+00  2.8965522866534994e+00 -5.9071018505460227e-01 0.0000000000000000e+00  3.0340609279440218e+00 -3.1641731965206649e-01 0.0000000000000000e+00  3.0298669456480609e+00 -9.2641780440244778e-02 0.0000000000000000e+00  2.9755993199763697e+00 1.5350998467856930e-01 0.0000000000000000e+00  2.8490049179235903e+00 2.9074044938298016e-01 0.0000000000000000e+00  2.7647778832235241e+00 3.2867478785927173e-01 0.0000000000000000e+00  2.6801378645072815e+00 3.3430246528766855e-01 0.0000000000000000e+00  2.4873205940124166e+00 4.0648713254382091e-01 0.0000000000000000e+00  2.1287162970687787e+00 4.5535139858770413e-01 0.0000000000000000e+00  1.6844417329398877e+00 5.2083976648383623e-01 0.0000000000000000e+00  1.5564162389987224e+00 5.1959932606460491e-01 0.0000000000000000e+00  1.5042652904651368e+00 5.1168592645537936e-01 0.0000000000000000e+00  1.4866250453679100e+00 5.1269076047160833e-01 0.0000000000000000e+00  1.4797390229225931e+00 5.1493345167234783e-01 0.0000000000000000e+00  1.4743246198304876e+00 5.1683784618882656e-01 0.0000000000000000e+00  2.0511461467147591e+00 5.3050474940838377e-01 0.0000000000000000e+00  2.3586259915981183e+00 5.3106500732230433e-01 0.0000000000000000e+00  2.6832215133545736e+00 4.7358163226920508e-01 0.0000000000000000e+00  2.9605179427554273e+00 3.3140250865956422e-01 0.0000000000000000e+00  3.0673801313178961e+00 9.3696805787074497e-02 0.0000000000000000e+00  2.9188331357667563e+00 -1.5043341963654552e-01 0.0000000000000000e+00  2.5392615779333010e+00 -2.8877703196860327e-01 0.0000000000000000e+00  2.1287946800540882e+00 -2.7243776054901953e-01 0.0000000000000000e+00  1.8135746123062917e+00 -2.0811936877206114e-01 0.0000000000000000e+00  1.4414140485900053e+00 1.2059746793710892e-01 0.0000000000000000e+00  1.3624220401787532e+00 4.0800902347427137e-01 0.0000000000000000e+00  1.3099879215690899e+00 6.2766843794360627e-01 0.0000000000000000e+00  1.2515184470131202e+00 7.4516595997137203e-01 0.0000000000000000e+00  1.1713208754546369e+00 7.6808766519987703e-01 0.0000000000000000e+00  1.0549164316706707e+00 6.9110066668310921e-01 0.0000000000000000e+00  8.7896442332806779e-01 5.2842652026600290e-01 0.0000000000000000e+00  6.3536530537773983e-01 3.3892143032301603e-01 0.0000000000000000e+00  3.4198265020746854e-01 1.7878622594354171e-01 0.0000000000000000e+00  4.0906629529401672e-01 -2.3413044858085746e-01 0.0000000000000000e+00  7.4281593443295946e-01 -4.4657920079241759e-01 0.0000000000000000e+00  9.9395384140950704e-01 -7.0014771229872019e-01 0.0000000000000000e+00  1.1148146287982259e+00 -8.5062220695943225e-01 0.0000000000000000e+00  1.1901790283042868e+00 -7.7447636422763844e-01 0.0000000000000000e+00  1.2978273489427887e+00 -5.5241761477370899e-01 0.0000000000000000e+00  1.4341337572318442e+00 -2.8406468593881934e-01 0.0000000000000000e+00  1.5650543401576131e+00 -2.4175005197607815e-02 0.0000000000000000e+00  1.6744564424386141e+00 2.2824383185675964e-01 0.0000000000000000e+00  0.0000000000000000e+00 0.0000000000000000e+00 0.0000000000000000e+00  0.0000000000000000e+00 0.0000000000000000e+00 0.0000000000000000e+00  0.0000000000000000e+00 0.0000000000000000e+00 0.0000000000000000e+00  0.0000000000000000e+00 0.0000000000000000e+00 0.0000000000000000e+00  0.0000000000000000e+00 0.0000000000000000e+00 0.0000000000000000e+00  0.0000000000000000e+00 0.0000000000000000e+00 0.0000000000000000e+00  0.0000000000000000e+00 0.0000000000000000e+00 0.0000000000000000e+00  0.0000000000000000e+00 0.0000000000000000e+00 0.0000000000000000e+00  0.0000000000000000e+00 0.0000000000000000e+00 0.0000000000000000e+00  2.9985670202039811e+00 -4.5142039408891338e-01 0.0000000000000000e+00  2.3363057845258308e+00 -2.3056542675342385e-03 0.0000000000000000e+00  2.2921093252108751e-01 -8.1128844382663032e-02 0.0000000000000000e+00  2.5088745277300079e-01 6.0029718554322806e-02 0.0000000000000000e+00  1.6568641272574467e+00 5.1392229962587166e-01 0.0000000000000000e+00  1.3097961564308371e+00 6.8413168390933377e-01 0.0000000000000000e+00  3.0056880252768821e+00 1.3760716194524467e-01 0.0000000000000000e+00  1.4115670089719836e+00 -6.7713273577643196e-01 0.0000000000000000e+00  -1.3596240408426974e-02 -1.0892429812667550e-02 0.0000000000000000e+00  7.2145666752178927e-01 4.2075865531510737e-01 0.0000000000000000e+00  9.9261591004655880e-01 -7.3013101564083405e-01 0.0000000000000000e+00  1.5003016458129140e-01 5.9580100882578126e-02 0.0000000000000000e+00  2.1238442603435109e-01 -1.0630577711738898e-01 0.0000000000000000e+00  1.8778173121546353e+00 3.4382118921997351e-01 0.0000000000000000e+00  1.6241359090969598e+00 6.5957505897380655e-04 0.0000000000000000e+00  2.5630381318086870e-01 3.8977273551599623e-01 0.0000000000000000e+00  2.4248146683623761e+00 -7.4934927230197501e-01 0.0000000000000000e+00  2.4356401589513390e+00 -9.9913611606793962e-01 0.0000000000000000e+00  2.7952272956982416e+00 -1.1198688599205058e+00 0.0000000000000000e+00  2.8500217378720065e+00 -4.6026689445785579e-01 0.0000000000000000e+00  2.3578850615425834e-01 5.9398828304008289e-01 0.0000000000000000e+00  1.4608752242051766e+00 5.2181485825474871e-01 0.0000000000000000e+00  3.6180430084540749e-02 -2.1185823909927251e-02 0.0000000000000000e+00  2.0513363579932129e+00 1.1666855956880871e-01 0.0000000000000000e+00  1.7262673878790333e+00 -3.6082247761649439e-01 0.0000000000000000e+00  2.7811397902535586e+00 1.6183090998804228e-01 0.0000000000000000e+00  2.5745248880630096e+00 -9.3449112667212647e-02 0.0000000000000000e+00  2.1404823421782626e+00 1.3672103975863081e-01 0.0000000000000000e+00  3.8275564745225038e-01 1.6014650684937537e-01 0.0000000000000000e+00  5.7942801971267177e-01 -3.3919838495577898e-01 0.0000000000000000e+00  1.0888126271618432e+00 6.9410963547213889e-01 0.0000000000000000e+00  1.6603853130623645e+00 2.5126586903019410e-01 0.0000000000000000e+00  7.1572147175561943e-02 -6.5016976529357784e-02 0.0000000000000000e+00  1.4331468087427188e+00 6.6373965199863993e-01 0.0000000000000000e+00  1.6698674033787779e+00 5.8523616076965312e-01 0.0000000000000000e+00  3.2905679905097673e-01 1.4906932197332642e-01 0.0000000000000000e+00  4.4541611040413776e-01 -2.6572463616929409e-01 0.0000000000000000e+00  8.1503222944715598e-02 1.5209824886261839e-03 0.0000000000000000e+00  9.5071202246181333e-02 -6.6376532698692228e-03 0.0000000000000000e+00  1.1883835770842583e+00 -7.9948054541795066e-01 0.0000000000000000e+00  3.0084175213624036e+00 4.9721011008870893e-02 0.0000000000000000e+00  1.4348151736510451e+00 6.0432867051318984e-01 0.0000000000000000e+00  2.8331232742891275e+00 1.5962318883358101e-01 0.0000000000000000e+00  2.9501202036987930e+00 1.4684712054039228e-01 0.0000000000000000e+00  1.4714814808082333e+00 -6.6892257490390883e-01 0.0000000000000000e+00  -5.7218641155842914e-03 -3.8578705901318147e-03 0.0000000000000000e+00  7.4869264657144186e-01 4.5401558874975989e-01 0.0000000000000000e+00  1.0466533977879173e+00 -7.9355925074389444e-01 0.0000000000000000e+00  1.4914587855841829e-01 3.2601343179020736e-01 0.0000000000000000e+00  2.8076673786566806e+00 -5.2939274217341026e-01 0.0000000000000000e+00  2.6441358387917330e-01 5.0143605406855507e-01 0.0000000000000000e+00  2.5487340607350317e+00 -6.0028776089636315e-01 0.0000000000000000e+00  2.2700863666793745e+00 -6.0353163826996448e-01 0.0000000000000000e+00  2.6055232937233286e+00 -1.1381241366832242e+00 0.0000000000000000e+00  2.4439153588323985e+00 -8.6476547734465870e-01 0.0000000000000000e+00  2.8932606824043492e+00 -1.0710512611065126e+00 0.0000000000000000e+00  2.9332580534689368e+00 -4.2953030272071424e-01 0.0000000000000000e+00  2.3270822694015343e+00 -9.5805650374394347e-01 0.0000000000000000e+00  2.8936964477916445e+00 -5.2840209644086911e-01 0.0000000000000000e+00  2.3889314454501869e+00 -1.1188336859565313e+00 0.0000000000000000e+00  2.8376641332015193e+00 -1.2128803774288537e+00 0.0000000000000000e+00  2.7601852594372951e+00 -1.0215788006173681e+00 0.0000000000000000e+00  1.9161971653674495e-01 5.6955741921850389e-01 0.0000000000000000e+00  2.5745106486857466e-01 6.3420347529785859e-01 0.0000000000000000e+00  2.0483242133102048e-01 6.2553698241252287e-01 0.0000000000000000e+00  1.4405328344495067e+00 5.2950607200426070e-01 0.0000000000000000e+00  1.4687923965077441e+00 5.1898929080414224e-01 0.0000000000000000e+00  1.4624767119599162e+00 5.2201375824440854e-01 0.0000000000000000e+00  2.0542466796535659e+00 -2.7465599199573104e-01 0.0000000000000000e+00  2.4769730337381271e+00 2.2116075877389196e-01 0.0000000000000000e+00  4.5282270673423532e-02 1.1484729799255460e-02 0.0000000000000000e+00  2.7574250889180907e+00 1.3920447699362723e-02 0.0000000000000000e+00  2.2793062673833658e-01 -9.2327309085744602e-02 0.0000000000000000e+00  1.7608522158383728e+00 -8.9239604328442038e-02 0.0000000000000000e+00  3.0100292814805472e+00 1.5552743766237881e-01 0.0000000000000000e+00  2.7437881667111399e+00 7.6199984489485936e-02 0.0000000000000000e+00  6.0775935870281650e-01 3.3103716819525136e-01 0.0000000000000000e+00  2.7879032465320205e-03 -1.8894612426664070e-02 0.0000000000000000e+00  4.9519412811148572e-01 2.2791302522408716e-01 0.0000000000000000e+00  5.5088720422850353e-02 -2.4815006025404863e-02 0.0000000000000000e+00  1.9128676357450818e+00 6.8943501514982797e-02 0.0000000000000000e+00  1.4731251548758950e+00 -5.5216741499787192e-01 0.0000000000000000e+00  1.5703098158158771e-01 3.5609599401747745e-02 0.0000000000000000e+00  1.1423355650477744e+00 6.4510635687072149e-01 0.0000000000000000e+00  2.0756075587021532e+00 3.1812159420696212e-01 0.0000000000000000e+00  1.1920743926747175e+00 7.3840840485699677e-01 0.0000000000000000e+00  7.8861872468487593e-01 -5.0870395071117769e-01 0.0000000000000000e+00  1.9988858192890722e+00 3.4789211979702894e-01 0.0000000000000000e+00  1.4596181124423189e+00 5.2414353135395253e-01 0.0000000000000000e+00  9.1507643671690198e-01 5.9254634362765934e-01 0.0000000000000000e+00  -2.6701754246231928e-02 -3.3808819206578469e-03 0.0000000000000000e+00  1.8307963679466965e+00 1.4717529666349941e-01 0.0000000000000000e+00  2.5910818599770509e+00 -3.0443565684627333e-01 0.0000000000000000e+00  8.2609996230718991e-02 7.3751100806762185e-02 0.0000000000000000e+00  8.5118062905699365e-01 -6.0220107287780678e-01 0.0000000000000000e+00  1.1873049567184450e+00 -7.7803624165349539e-01 0.0000000000000000e+00  2.8169995301821480e+00 -7.2747245313336997e-02 0.0000000000000000e+00  2.8952837164707340e-01 1.2446940287460527e-01 0.0000000000000000e+00  1.4140342604753547e-01 -2.2854144422089875e-01 0.0000000000000000e+00  2.9452674438433739e+00 2.0436011955344879e-01 0.0000000000000000e+00  1.4938390754155961e+00 6.3592303239239745e-01 0.0000000000000000e+00  -3.6734173454213656e-03 -7.9779108943481211e-02 0.0000000000000000e+00  2.0269971388042782e-01 -1.0479486169089079e-01 0.0000000000000000e+00  1.5593225184919846e+00 6.0562324119246369e-01 0.0000000000000000e+00  1.6294128452863359e+00 5.7964471305995457e-01 0.0000000000000000e+00  1.8222132140837075e+00 5.4101804728269320e-01 0.0000000000000000e+00  1.1793104865181345e+00 -8.1498814316595503e-01 0.0000000000000000e+00  2.4847819282328292e+00 1.8817395673031692e-01 0.0000000000000000e+00  1.0658540687781937e+00 -7.9358467639521602e-01 0.0000000000000000e+00  3.7690740455070543e-01 2.7308491060188023e-01 0.0000000000000000e+00  4.4684710116445536e-01 -3.9171509747177813e-01 0.0000000000000000e+00  1.4703164959077124e+00 5.5598655306947742e-01 0.0000000000000000e+00  1.5755908769713030e+00 -6.5849394961150431e-01 0.0000000000000000e+00  8.6487121082566298e-01 5.5690601569471365e-01 0.0000000000000000e+00  2.9362517559728558e+00 -3.1087948897882484e-01 0.0000000000000000e+00  1.817976594958439