<?xml version="1.0"?>
<VTKFile type="UnstructuredGrid"  version="0.1"  >
<UnstructuredGrid>
<Piece  NumberOfPoints="2868" NumberOfCells="5400">
<Points>
<DataArray  type="Float64"  NumberOfComponents="3"  format="ascii">0.534923 0.326073 0  0.510642 0.314196 0  0.466125 0.293082 0  0.436448 0.281205 0  0.409468 0.275927 0  0.368998 0.270648 0  0.35281 0.275927 0  0.381139 0.302319 0  0.405421 0.326073 0  0.410817 0.33531 0  0.408119 0.349826 0  0.400025 0.357744 0  0.375743 0.368301 0  0.329878 0.392055 0  0.297502 0.432963 0  0.282663 0.476511 0  0.285361 0.524018 0  0.298851 0.572845 0  0.317737 0.6045160000000001 0  0.337972 0.6361869999999999 0  0.360904 0.674457 0  0.368998 0.69953 0  0.359555 0.7219640000000001 0  0.360904 0.757594 0  0.370347 0.766831 0  0.381139 0.762872 0  0.390582 0.741758 0  0.404072 0.720644 0  0.424307 0.707448 0  0.447239 0.702169 0  0.480964 0.704808 0  0.479615 0.6889729999999999 0  0.468823 0.675776 0  0.447239 0.6691780000000001 0  0.428354 0.6691780000000001 0  0.410817 0.6639 0  0.404072 0.653343 0  0.395978 0.628269 0  0.387884 0.59132 0  0.389233 0.576804 0  0.397327 0.557009 0  0.410817 0.547772 0  0.424307 0.546452 0  0.437797 0.55305 0  0.44589 0.5662469999999999 0  0.441843 0.582082 0  0.439145 0.5979179999999999 0  0.449937 0.609795 0  0.468823 0.603196 0  0.479615 0.59 0  0.489058 0.570205 0  0.494454 0.546452 0  0.505246 0.522699 0  0.522783 0.509502 0  0.55246 0.494986 0  0.586185 0.484429 0  0.615863 0.48047 0  0.64554 0.473872 0  0.6671240000000001 0.461995 0  0.683312 0.451438 0  0.696802 0.435603 0  0.703547 0.417128 0  0.7116400000000001 0.393374 0  0.7183850000000001 0.37226 0  0.7251300000000001 0.364342 0  0.739969 0.353785 0  0.7453650000000001 0.344548 0  0.7453650000000001 0.327393 0  0.737271 0.318155 0  0.7183850000000001 0.316835 0  0.7008490000000001 0.319475 0  0.677916 0.318155 0  0.650936 0.316835 0  0.610467 0.318155 0  0.57944 0.324753 0  0.559205 0.328712 0  0.5389699999999999 0.326073 0  1 1 0  1 0 0  0 0 0  0 1 0  0.532238 0.32476 0  0.528748 0.323052 0  0.52421 0.320833 0  0.518311 0.317947 0  0.503447 0.310783 0  0.494093 0.306347 0  0.481933 0.30058 0  0.452151 0.28749 0  0.392327 0.273691 0  0.379141 0.271971 0  0.360474 0.283066 0  0.369797 0.291752 0  0.391424 0.31238 0  0.399335 0.32012 0  0.40958 0.341964 0  0.393939 0.36039 0  0.386028 0.36383 0  0.364248 0.374254 0  0.349304 0.381994 0  0.315801 0.409841 0  0.292986 0.551616 0  0.350934 0.657818 0  0.360127 0.737055 0  0.360566 0.748664 0  0.385245 0.753692 0  0.396447 0.732578 0  0.466301 0.703661 0  0.459439 0.672908 0  0.418442 0.666195 0  0.400553 0.642441 0  0.39255 0.612619 0  0.389913 0.60058 0  0.392752 0.568197 0  0.444131 0.573132 0  0.458149 0.606926 0  0.5005540000000001 0.533026 0  0.571522 0.489019 0  0.632637 0.476741 0  0.689177 0.444553 0  0.708121 0.403702 0  0.715453 0.38144 0  0.732406 0.359166 0  0.7453650000000001 0.337089 0  0.72906 0.317581 0  0.629879 0.317522 0  0.59293 0.321884 0  0.568003 0.326991 0  0.55202 0.327775 0  0.546493 0.327054 0  0.542241 0.326499 0  1 0.9 0  1 0.8 0  1 0.7 0  1 0.6 0  1 0.5 0  1 0.4 0  1 0.3 0  1 0.2 0  1 0.1 0  0.9 0 0  0.8 0 0  0.7 0 0  0.6 0 0  0.5 0 0  0.4 0 0  0.3 0 0  0.2 0 0  0.1 0 0  0.1 1 0  0.2 1 0  0.3 1 0  0.4 1 0  0.5 1 0  0.6 1 0  0.7 1 0  0.8 1 0  0.9 1 0  0 0.1 0  0 0.2 0  0 0.3 0  0 0.4 0  0 0.5 0  0 0.6 0  0 0.7 0  0 0.8 0  0 0.9 0  0.535686 0.5031910000000001 0  0.753987 0.733359 0  0.167145 0.741436 0  0.173378 0.257204 0  0.733497 0.159862 0  0.554096 0.15788 0  0.849187 0.479053 0  0.488793 0.838452 0  0.138507 0.5592 0  0.30686 0.154944 0  0.348904 0.890523 0  0.058006 0.065099 0  0.06984899999999999 0.937917 0  0.93633 0.939704 0  0.934625 0.053613 0  0.343397 0.333452 0  0.473272 0.639943 0  0.433266 0.638072 0  0.415174 0.58269 0  0.533435 0.545042 0  0.390848 0.340652 0  0.53655 0.320242 0  0.127966 0.393775 0  0.83861 0.850455 0  0.635242 0.8551299999999999 0  0.852158 0.633441 0  0.653427 0.626848 0  0.861226 0.24292 0  0.166128 0.12976 0  0.216875 0.8698709999999999 0  0.458305 0.11179 0  0.84446 0.101633 0  0.202024 0.642528 0  0.644825 0.115855 0  0.671342 0.218358 0  0.251354 0.286186 0  0.262388 0.75153 0  0.063044 0.751571 0  0.068189 0.242962 0  0.435781 0.9053949999999999 0  0.934144 0.451133 0  0.568393 0.237622 0  0.814984 0.395506 0  0.752951 0.517227 0  0.456254 0.780699 0  0.073352 0.531116 0  0.337731 0.206071 0  0.363213 0.960371 0  0.330742 0.363592 0  0.516613 0.55705 0  0.369057 0.332992 0  0.500926 0.617309 0  0.498004 0.665534 0  0.412142 0.61178 0  0.454233 0.6366039999999999 0  0.422782 0.567496 0  0.541193 0.5214800000000001 0  0.439761 0.65557 0  0.5163 0.533672 0  0.414775 0.64562 0  0.40073 0.576135 0  0.430362 0.5880339999999999 0  0.385432 0.351492 0  0.400298 0.335397 0  0.398325 0.348194 0  0.528702 0.314885 0  0.540814 0.322334 0  0.534477 0.322953 0  0.619095 0.743583 0  0.885162 0.737972 0  0.08076 0.668849 0  0.90734 0.36634 0  0.09468699999999999 0.868937 0  0.759838 0.912152 0  0.901518 0.540898 0  0.747285 0.607479 0  0.229182 0.071641 0  0.06915399999999999 0.450091 0  0.244775 0.203309 0  0.076534 0.331755 0  0.897847 0.167826 0  0.578909 0.911415 0  0.07713299999999999 0.146341 0  0.477215 0.203448 0  0.922631 0.869341 0  0.517415 0.074785 0  0.297026 0.827793 0  0.7832710000000001 0.246505 0  0.74519 0.061079 0  0.36033 0.069068 0  0.210313 0.475228 0  0.859426 0.928758 0  0.5745479999999999 0.609182 0  0.243069 0.383398 0  0.283099 0.934598 0  0.417416 0.843141 0  0.643942 0.553164 0  0.112687 0.079336 0  0.281357 0.658386 0  0.765043 0.436177 0  0.611361 0.198486 0  0.234496 0.58911 0  0.206479 0.702638 0  0.679608 0.155818 0  0.62682 0.259978 0  0.690538 0.264164 0  0.448938 0.956308 0  0.808154 0.328403 0  0.379583 0.91913 0  0.308083 0.297769 0  0.312358 0.730249 0  0.563101 0.278576 0  0.435597 0.746198 0  0.385475 0.225229 0  0.572248 0.518034 0  0.357864 0.35422 0  0.497647 0.641694 0  0.458101 0.655768 0  0.360474 0.310727 0  0.467038 0.620139 0  0.47798 0.659909 0  0.41102 0.628072 0  0.48324 0.609015 0  0.427544 0.617941 0  0.388633 0.328253 0  0.405336 0.599404 0  0.408351 0.565178 0  0.42395 0.600985 0  0.431562 0.576523 0  0.424905 0.6551979999999999 0  0.398064 0.58782 0  0.427739 0.557934 0  0.5192909999999999 0.303443 0  0.53142 0.320293 0  0.5449000000000001 0.323642 0  0.537166 0.323513 0  0.153974 0.920841 0  0.9181859999999999 0.67343 0  0.759946 0.820588 0  0.5375259999999999 0.783091 0  0.816532 0.545843 0  0.813991 0.178083 0  0.836774 0.702023 0  0.149815 0.318856 0  0.662287 0.923338 0  0.680146 0.791192 0  0.708961 0.663172 0  0.9372779999999999 0.287318 0  0.574622 0.6881660000000001 0  0.5894740000000001 0.076262 0  0.502822 0.926683 0  0.222269 0.811068 0  0.380457 0.164786 0  0.15321 0.684154 0  0.458063 0.051413 0  0.161702 0.056026 0  0.199351 0.198818 0  0.298946 0.09553200000000001 0  0.902465 0.795949 0  0.121139 0.791477 0  0.906269 0.112287 0  0.056109 0.822332 0  0.512172 0.13237 0  0.940964 0.741805 0  0.888887 0.408777 0  0.354543 0.825964 0  0.808736 0.068638 0  0.068507 0.394071 0  0.719105 0.563843 0  0.247287 0.149664 0  0.293062 0.237128 0  0.240524 0.434997 0  0.141255 0.623289 0  0.945202 0.160621 0  0.502914 0.247629 0  0.144669 0.480811 0  0.665025 0.060817 0  0.728047 0.224344 0  0.861995 0.313312 0  0.200068 0.534235 0  0.253262 0.965623 0  0.893804 0.49307 0  0.604391 0.572456 0  0.947088 0.345347 0  0.439372 0.227307 0  0.629847 0.159823 0  0.273405 0.880181 0  0.302744 0.776823 0  0.781502 0.295365 0  0.275342 0.349602 0  0.7283849999999999 0.472798 0  0.229136 0.246478 0  0.807794 0.480346 0  0.709476 0.112786 0  0.275506 0.694991 0  0.771674 0.394419 0  0.449715 0.861802 0  0.419159 0.799696 0  0.674851 0.503139 0  0.280443 0.61016 0  0.572443 0.192538 0  0.393113 0.87525 0  0.405555 0.948428 0  0.330942 0.934103 0  0.540509 0.597101 0  0.312763 0.6689310000000001 0  0.254368 0.540179 0  0.595265 0.25915 0  0.606679 0.234099 0  0.657131 0.279138 0  0.722458 0.279478 0  0.333 0.308056 0  0.351529 0.246142 0  0.455714 0.7257940000000001 0  0.585239 0.295143 0  0.340062 0.72492 0  0.545593 0.293773 0  0.555449 0.545426 0  0.414311 0.737314 0  0.590854 0.502323 0  0.350507 0.368444 0  0.484423 0.625665 0  0.483899 0.674542 0  0.378137 0.317274 0  0.446416 0.646404 0  0.373532 0.347654 0  0.446876 0.619769 0  0.466106 0.666068 0  0.437545 0.609254 0  0.434988 0.565726 0  0.41462 0.656829 0  0.418803 0.556961 0  0.398425 0.327446 0  0.517803 0.310421 0  0.549516 0.322918 0  0.57701 0.842889 0  0.8291269999999999 0.773906 0  0.643235 0.684732 0  0.134281 0.207734 0  0.865997 0.055966 0  0.680959 0.723345 0  0.165229 0.8415550000000001 0  0.54558 0.959672 0  0.783726 0.656439 0  0.913315 0.595533 0  0.699439 0.860667 0  0.785839 0.125076 0  0.551673 0.037713 0  0.9200970000000001 0.223214 0  0.206406 0.299726 0  0.087064 0.596401 0  0.935644 0.394252 0  0.964557 0.252582 0  0.230124 0.928346 0  0.120579 0.271764 0  0.8572149999999999 0.524082 0  0.7670979999999999 0.5551469999999999 0  0.936094 0.507131 0  0.804064 0.59585 0  0.700565 0.608273 0  0.429773 0.174231 0  0.117746 0.727333 0  0.5389620000000001 0.730231 0  0.862761 0.359173 0  0.821444 0.284046 0  0.193552 0.35818 0  0.234923 0.505555 0  0.193209 0.421217 0  0.220144 0.755896 0  0.594015 0.131642 0  0.283813 0.195855 0  0.517519 0.213961 0  0.553509 0.639116 0  0.280391 0.378018 0  0.852183 0.436817 0  0.746983 0.197173 0  0.821806 0.221318 0  0.449853 0.828453 0  0.883758 0.453926 0  0.183484 0.589542 0  0.348384 0.129314 0  0.255254 0.838525 0  0.504849 0.798516 0  0.320344 0.863432 0  0.611669 0.525425 0  0.265864 0.804962 0  0.72056 0.521442 0  0.613372 0.6101220000000001 0  0.481262 0.881068 0  0.655778 0.191988 0  0.701921 0.196918 0  0.5658260000000001 0.5731810000000001 0  0.46914 0.240927 0  0.343219 0.173284 0  0.888786 0.278502 0  0.244113 0.6750930000000001 0  0.739546 0.417914 0  0.784023 0.355942 0  0.326805 0.265549 0  0.248616 0.6
[...]
<PointData  Vectors="f_21"> 
<DataArray  type="Float64"  Name="f_21"  NumberOfComponents="3" format="ascii">1.4209193430976714e+00 7.2446042492069973e-01 0.0000000000000000e+00  1.3565987217537152e+00 7.4551957817352554e-01 0.0000000000000000e+00  1.1658529964592332e+00 7.5338683507453819e-01 0.0000000000000000e+00  1.0076591516171303e+00 7.2620452146964609e-01 0.0000000000000000e+00  8.6187097090494647e-01 6.7379151848098084e-01 0.0000000000000000e+00  6.3719089958628639e-01 5.6899062012076462e-01 0.0000000000000000e+00  5.0880789871265464e-01 4.8344855099193612e-01 0.0000000000000000e+00  3.7159460631640073e-01 5.6006020134051637e-01 0.0000000000000000e+00  2.8696378894196672e-01 6.4517141549987178e-01 0.0000000000000000e+00  2.5284506599258233e-01 6.6548747950022069e-01 0.0000000000000000e+00  1.9852084455107294e-01 6.5560730935461797e-01 0.0000000000000000e+00  1.6837651312945853e-01 6.2491806284310580e-01 0.0000000000000000e+00  1.2890150301362471e-01 5.2766599671241166e-01 0.0000000000000000e+00  6.7043401837651742e-02 3.1908334663421750e-01 0.0000000000000000e+00  1.2726641199482983e-02 1.4856627843240858e-01 0.0000000000000000e+00  -9.5550770017706066e-03 1.7302487496365294e-02 0.0000000000000000e+00  -1.8995189878608925e-03 -1.0659277305244753e-01 0.0000000000000000e+00  3.2438806569499913e-02 -2.4301149043697157e-01 0.0000000000000000e+00  8.4167253457152716e-02 -3.6440891559685312e-01 0.0000000000000000e+00  1.6350056583729308e-01 -4.8892743502427188e-01 0.0000000000000000e+00  2.9825905433547162e-01 -6.3259156607589251e-01 0.0000000000000000e+00  4.0463904996822980e-01 -6.8696106442983396e-01 0.0000000000000000e+00  5.0524009421932725e-01 -6.7369643608905727e-01 0.0000000000000000e+00  8.0408610139246905e-01 -7.4690382904807429e-01 0.0000000000000000e+00  1.0499812774163042e+00 -8.3560873552528558e-01 0.0000000000000000e+00  1.2509774577957713e+00 -8.6726707720185359e-01 0.0000000000000000e+00  1.5570367590884633e+00 -8.6905428939905105e-01 0.0000000000000000e+00  1.7080257679235500e+00 -8.1049820794927652e-01 0.0000000000000000e+00  1.7733734709663533e+00 -7.4449716401597277e-01 0.0000000000000000e+00  1.8076058898261012e+00 -7.0107809595324788e-01 0.0000000000000000e+00  1.9310258582120028e+00 -7.4210172696341292e-01 0.0000000000000000e+00  2.1207712924239410e+00 -8.1135867971899422e-01 0.0000000000000000e+00  2.2180542762486524e+00 -9.0046696035428186e-01 0.0000000000000000e+00  2.2494392763876685e+00 -1.0603372857730828e+00 0.0000000000000000e+00  2.2391403386355813e+00 -1.2102831178190361e+00 0.0000000000000000e+00  2.2773694927759749e+00 -1.3514173624794508e+00 0.0000000000000000e+00  2.3587893964908133e+00 -1.4059424421933997e+00 0.0000000000000000e+00  2.5546095400028483e+00 -1.4807129174516620e+00 0.0000000000000000e+00  2.8679509047185201e+00 -1.5646176708441648e+00 0.0000000000000000e+00  2.9954232680153261e+00 -1.5550871402338018e+00 0.0000000000000000e+00  3.1697562412377667e+00 -1.4858637744530794e+00 0.0000000000000000e+00  3.2512116052179274e+00 -1.3681037337114614e+00 0.0000000000000000e+00  3.2630980009385686e+00 -1.2498247668807394e+00 0.0000000000000000e+00  3.2052645310884542e+00 -1.1309254510939115e+00 0.0000000000000000e+00  3.0884594896129003e+00 -1.0589440710990929e+00 0.0000000000000000e+00  2.9470097430257014e+00 -1.0946241295160066e+00 0.0000000000000000e+00  2.8021740655428795e+00 -1.1206727455858618e+00 0.0000000000000000e+00  2.6799403260430066e+00 -1.0336871672453161e+00 0.0000000000000000e+00  2.6855592470353375e+00 -8.9329888176746741e-01 0.0000000000000000e+00  2.7309698276695134e+00 -8.2066059493301913e-01 0.0000000000000000e+00  2.8043640560665115e+00 -7.6245932490087232e-01 0.0000000000000000e+00  2.8951527362987686e+00 -7.3150619225093716e-01 0.0000000000000000e+00  2.9871150056680347e+00 -6.8350019493417136e-01 0.0000000000000000e+00  3.0372894745906716e+00 -6.0939489237331590e-01 0.0000000000000000e+00  3.0872939183857695e+00 -4.8245803694509365e-01 0.0000000000000000e+00  3.1152631048118420e+00 -3.3677979371550099e-01 0.0000000000000000e+00  3.1093158822251570e+00 -2.0397122424692360e-01 0.0000000000000000e+00  3.0930165117937336e+00 -5.9561217244443188e-02 0.0000000000000000e+00  3.0810171374589883e+00 4.9278965096397051e-02 0.0000000000000000e+00  3.0571325389824486e+00 1.4546350985156348e-01 0.0000000000000000e+00  3.0168192970758421e+00 2.4235362024294127e-01 0.0000000000000000e+00  2.9562691451580578e+00 3.1571740761711059e-01 0.0000000000000000e+00  2.8728370149365103e+00 3.8116025392453645e-01 0.0000000000000000e+00  2.7942776383068844e+00 4.1061236779848664e-01 0.0000000000000000e+00  2.7697482604084471e+00 4.1093012481089575e-01 0.0000000000000000e+00  2.7123590681832046e+00 4.4178262037489269e-01 0.0000000000000000e+00  2.6296852739999843e+00 4.7701065451914926e-01 0.0000000000000000e+00  2.4251037376829911e+00 5.3739469038335397e-01 0.0000000000000000e+00  2.2532062053651183e+00 5.8590055766803140e-01 0.0000000000000000e+00  2.0872583401238707e+00 6.1535617305320189e-01 0.0000000000000000e+00  1.9971278838997630e+00 6.3250117799806937e-01 0.0000000000000000e+00  1.8973958950299519e+00 6.6710592286349546e-01 0.0000000000000000e+00  1.7722558002043149e+00 7.0168552490038605e-01 0.0000000000000000e+00  1.5969768274384510e+00 7.2766676626341242e-01 0.0000000000000000e+00  1.4909232180559753e+00 7.2054682029605810e-01 0.0000000000000000e+00  1.4535399059031360e+00 7.1572807779537717e-01 0.0000000000000000e+00  1.4248354939308547e+00 7.2233042565904315e-01 0.0000000000000000e+00  1.8342462270022142e+00 5.9629487433685147e-01 0.0000000000000000e+00  1.3966880287609009e+00 -1.8753579982145116e-01 0.0000000000000000e+00  0.0000000000000000e+00 0.0000000000000000e+00 0.0000000000000000e+00  0.0000000000000000e+00 0.0000000000000000e+00 0.0000000000000000e+00  1.4169816125391559e+00 7.2710684416553051e-01 0.0000000000000000e+00  1.4097324936186293e+00 7.3049692947823719e-01 0.0000000000000000e+00  1.3983918494485608e+00 7.3473247426349741e-01 0.0000000000000000e+00  1.3816217832892093e+00 7.3986966793657716e-01 0.0000000000000000e+00  1.3309937789435169e+00 7.4942875243998042e-01 0.0000000000000000e+00  1.2945929608830515e+00 7.5363766283478251e-01 0.0000000000000000e+00  1.2430950782078847e+00 7.5539301270456471e-01 0.0000000000000000e+00  1.0954863674142552e+00 7.4431977609998146e-01 0.0000000000000000e+00  7.7442337588588750e-01 6.3091986009141787e-01 0.0000000000000000e+00  7.0489688006130047e-01 5.9813198943830426e-01 0.0000000000000000e+00  4.5409952199461595e-01 5.0337290513250155e-01 0.0000000000000000e+00  4.1191833391256183e-01 5.2671186558527661e-01 0.0000000000000000e+00  3.3600668590300281e-01 5.9406606126936956e-01 0.0000000000000000e+00  3.0851334639560202e-01 6.2256246040631202e-01 0.0000000000000000e+00  2.2806382333753286e-01 6.6098815753694473e-01 0.0000000000000000e+00  1.5823016742487100e-01 6.0133540987213630e-01 0.0000000000000000e+00  1.4516234498786620e-01 5.6996337472956815e-01 0.0000000000000000e+00  1.0883358933246449e-01 4.7822853835586765e-01 0.0000000000000000e+00  8.6809481045411960e-02 4.1146974361523753e-01 0.0000000000000000e+00  3.8640003923837270e-02 2.4462019499978671e-01 0.0000000000000000e+00  1.4318167693946036e-02 -1.8079576170758321e-01 0.0000000000000000e+00  2.3391194912810187e-01 -5.7105085141858336e-01 0.0000000000000000e+00  5.9802780955296042e-01 -7.0830885048861036e-01 0.0000000000000000e+00  6.9412793178749499e-01 -7.3526288373443127e-01 0.0000000000000000e+00  1.4270876348113488e+00 -8.8442215880093489e-01 0.0000000000000000e+00  1.6329012536111112e+00 -8.4274054014704824e-01 0.0000000000000000e+00  1.8464553351291950e+00 -6.9689953321570886e-01 0.0000000000000000e+00  2.2317481314618202e+00 -9.6915081348338228e-01 0.0000000000000000e+00  2.2601160794034083e+00 -1.2901394177441485e+00 0.0000000000000000e+00  2.4426181120766381e+00 -1.4369689046728975e+00 0.0000000000000000e+00  2.6833150204070924e+00 -1.5167805171498008e+00 0.0000000000000000e+00  2.7868523818444642e+00 -1.5444881625944220e+00 0.0000000000000000e+00  3.0712227375964387e+00 -1.5252344605639290e+00 0.0000000000000000e+00  3.0271623915360553e+00 -1.0744293421182003e+00 0.0000000000000000e+00  2.6830613111494928e+00 -9.7067161319732831e-01 0.0000000000000000e+00  2.9467984179239117e+00 -7.0390461319012920e-01 0.0000000000000000e+00  3.1035657761036863e+00 -4.0050293309840013e-01 0.0000000000000000e+00  3.1036981987321535e+00 -1.2458797747753432e-01 0.0000000000000000e+00  3.0415472852335066e+00 1.8917191731623367e-01 0.0000000000000000e+00  2.9104661954145650e+00 3.5617810285196599e-01 0.0000000000000000e+00  2.8271195220559906e+00 4.0275988380895611e-01 0.0000000000000000e+00  2.7464258613108501e+00 4.1977366975792896e-01 0.0000000000000000e+00  2.5485916752933511e+00 5.1832350704349006e-01 0.0000000000000000e+00  2.1715050512601510e+00 5.9854929214536734e-01 0.0000000000000000e+00  1.6784906800067569e+00 7.1733788327615766e-01 0.0000000000000000e+00  1.5293991376759195e+00 7.2498361541889156e-01 0.0000000000000000e+00  1.4664888210481759e+00 7.1707971090753353e-01 0.0000000000000000e+00  1.4447630959755513e+00 7.1723481075697348e-01 0.0000000000000000e+00  1.4363783713003280e+00 7.1925696677770756e-01 0.0000000000000000e+00  1.4297982913732832e+00 7.2091334601580204e-01 0.0000000000000000e+00  2.1702384253092615e+00 6.2012807320615981e-01 0.0000000000000000e+00  2.5104926209517715e+00 6.1203625032123177e-01 0.0000000000000000e+00  2.8167679431392809e+00 5.3858862529715024e-01 0.0000000000000000e+00  3.0445283270418559e+00 4.0213033219524652e-01 0.0000000000000000e+00  3.1145855355896193e+00 1.8792773965345516e-01 0.0000000000000000e+00  2.9628332314281671e+00 -4.1521907460133289e-02 0.0000000000000000e+00  2.5986601626271413e+00 -1.9884219418680418e-01 0.0000000000000000e+00  2.1701393902143584e+00 -2.3525237931762966e-01 0.0000000000000000e+00  1.7725344717361731e+00 -2.1617933355732308e-01 0.0000000000000000e+00  1.3088409588217431e+00 1.9469324430850798e-01 0.0000000000000000e+00  1.2478166835509150e+00 5.5611228133718071e-01 0.0000000000000000e+00  1.2198886107260718e+00 8.2789981293089543e-01 0.0000000000000000e+00  1.1928601257346789e+00 9.6335022785921465e-01 0.0000000000000000e+00  1.1489172040591025e+00 9.6254451629557958e-01 0.0000000000000000e+00  1.0683066153398848e+00 8.2020386578495519e-01 0.0000000000000000e+00  8.9925253760696167e-01 5.8105525681351899e-01 0.0000000000000000e+00  6.4702950171140838e-01 3.5094696705599093e-01 0.0000000000000000e+00  3.4699496367202354e-01 1.8160644363437625e-01 0.0000000000000000e+00  4.3318240367173566e-01 -2.4369940324075431e-01 0.0000000000000000e+00  7.8795204927288853e-01 -4.5945364823522250e-01 0.0000000000000000e+00  1.0531110903348504e+00 -7.2926812348346048e-01 0.0000000000000000e+00  1.1695148488823457e+00 -9.0742416599679987e-01 0.0000000000000000e+00  1.2301506230553774e+00 -8.4571822215161208e-01 0.0000000000000000e+00  1.3334847445181335e+00 -6.2528479461233744e-01 0.0000000000000000e+00  1.4739441742876398e+00 -3.4964771764602148e-01 0.0000000000000000e+00  1.6146564924138964e+00 -5.3667318018934491e-02 0.0000000000000000e+00  1.7341660728514681e+00 2.6234850900104406e-01 0.0000000000000000e+00  0.0000000000000000e+00 0.0000000000000000e+00 0.0000000000000000e+00  0.0000000000000000e+00 0.0000000000000000e+00 0.0000000000000000e+00  0.0000000000000000e+00 0.0000000000000000e+00 0.0000000000000000e+00  0.0000000000000000e+00 0.0000000000000000e+00 0.0000000000000000e+00  0.0000000000000000e+00 0.0000000000000000e+00 0.0000000000000000e+00  0.0000000000000000e+00 0.0000000000000000e+00 0.0000000000000000e+00  0.0000000000000000e+00 0.0000000000000000e+00 0.0000000000000000e+00  0.0000000000000000e+00 0.0000000000000000e+00 0.0000000000000000e+00  0.0000000000000000e+00 0.0000000000000000e+00 0.0000000000000000e+00  3.0595776571880573e+00 -5.5413403320245591e-01 0.0000000000000000e+00  2.4131838268085759e+00 9.7814709320285711e-03 0.0000000000000000e+00  2.8368306161771617e-01 -9.5800611363013086e-02 0.0000000000000000e+00  2.3149716353243163e-01 7.0468307275228639e-02 0.0000000000000000e+00  1.6317255976379217e+00 6.8985901130471972e-01 0.0000000000000000e+00  1.2564551745478405e+00 9.0069781531683168e-01 0.0000000000000000e+00  3.0531771627842428e+00 2.4380553668892035e-01 0.0000000000000000e+00  1.4491361594433407e+00 -7.5529784687012502e-01 0.0000000000000000e+00  5.5951950751985053e-03 -1.4296146441248919e-02 0.0000000000000000e+00  6.8511832384873406e-01 4.7418071458334649e-01 0.0000000000000000e+00  1.0398178261837570e+00 -7.7733169784990463e-01 0.0000000000000000e+00  1.4897957480431262e-01 5.9744185121480747e-02 0.0000000000000000e+00  2.2916557430752574e-01 -1.1040717008875117e-01 0.0000000000000000e+00  1.9746513294669110e+00 4.0141326163063556e-01 0.0000000000000000e+00  1.5380526185470926e+00 4.7707554588172531e-02 0.0000000000000000e+00  2.4894446546212570e-01 4.0498544181948404e-01 0.0000000000000000e+00  2.4621067691568470e+00 -8.6766432551312378e-01 0.0000000000000000e+00  2.4747759847264406e+00 -1.1681731281343584e+00 0.0000000000000000e+00  2.9417931141120492e+00 -1.3292507959383018e+00 0.0000000000000000e+00  2.8972479395472055e+00 -5.6330343450552645e-01 0.0000000000000000e+00  2.3297616238570046e-01 5.8991606550680020e-01 0.0000000000000000e+00  1.4146122364537290e+00 7.2591094593701289e-01 0.0000000000000000e+00  3.2159669782758957e-02 -1.8742388060720098e-02 0.0000000000000000e+00  2.1610833444992528e+00 1.3227471790903278e-01 0.0000000000000000e+00  1.7689735176570276e+00 -4.2177644300252815e-01 0.0000000000000000e+00  2.8665295472876977e+00 2.4750421322958840e-01 0.0000000000000000e+00  2.6126663934205068e+00 -1.1877702202977676e-01 0.0000000000000000e+00  2.1911329277965428e+00 2.3925360888796987e-01 0.0000000000000000e+00  3.6877756798489580e-01 1.6717158243013883e-01 0.0000000000000000e+00  6.3091539129967389e-01 -3.5722687872551967e-01 0.0000000000000000e+00  1.0436930601602430e+00 8.7037211816931281e-01 0.0000000000000000e+00  1.6203495980060236e+00 3.7190726574602795e-01 0.0000000000000000e+00  1.2493083989221039e-01 -9.1129894126816990e-02 0.0000000000000000e+00  1.3785998356079521e+00 8.7715204210549058e-01 0.0000000000000000e+00  1.6467786547304850e+00 7.7775729105021907e-01 0.0000000000000000e+00  3.0220854627344007e-01 1.6914795207336397e-01 0.0000000000000000e+00  5.1165229056081907e-01 -3.1158014221490754e-01 0.0000000000000000e+00  1.0376601121431159e-01 2.5670544797763680e-03 0.0000000000000000e+00  8.8423239149477070e-02 -3.3877117837438561e-03 0.0000000000000000e+00  1.2285420729757659e+00 -8.6791059931307124e-01 0.0000000000000000e+00  3.0510104845730446e+00 1.5815059918985239e-01 0.0000000000000000e+00  1.3913026911200292e+00 8.1938697761431878e-01 0.0000000000000000e+00  2.8928158220042040e+00 2.6258786896038561e-01 0.0000000000000000e+00  3.0001704374849534e+00 2.1483024975205972e-01 0.0000000000000000e+00  1.5102213559218467e+00 -7.4827105399248617e-01 0.0000000000000000e+00  9.0839317152469794e-04 -7.9878046892061687e-04 0.0000000000000000e+00  7.0325187651938326e-01 5.1796141513455785e-01 0.0000000000000000e+00  1.0967595662401404e+00 -8.4108075409808647e-01 0.0000000000000000e+00  1.4986331307037928e-01 3.3715085597980832e-01 0.0000000000000000e+00  2.8534470582001070e+00 -6.3817172554404522e-01 0.0000000000000000e+00  2.5862050980894902e-01 5.0708001782055556e-01 0.0000000000000000e+00  2.5923749327216927e+00 -7.0802039701689046e-01 0.0000000000000000e+00  2.2948404651625069e+00 -7.0605742788775105e-01 0.0000000000000000e+00  2.6872699024607631e+00 -1.3499516068862734e+00 0.0000000000000000e+00  2.4846941705656040e+00 -1.0017221048682241e+00 0.0000000000000000e+00  3.0771813547917648e+00 -1.2632242126444519e+00 0.0000000000000000e+00  2.9868198834466724e+00 -5.2990795470819485e-01 0.0000000000000000e+00  2.3468426505754034e+00 -1.1170768143913652e+00 0.0000000000000000e+00  2.9436487803414364e+00 -6.3780145996231008e-01 0.0000000000000000e+00  2.4179061194222826e+00 -1.3206115768679740e+00 0.0000000000000000e+00  3.0008114298271575e+00 -1.4550015989930114e+00 0.0000000000000000e+00  2.8930024622913515e+00 -1.1970512928300188e+00 0.0000000000000000e+00  1.9253380301612305e-01 5.6794578302497334e-01 0.0000000000000000e+00  2.5258576556785090e-01 6.2606762773253644e-01 0.0000000000000000e+00  2.0477431051309239e-01 6.1845315836748760e-01 0.0000000000000000e+00  1.3913810771499266e+00 7.3346456548879502e-01 0.0000000000000000e+00  1.4237835171955349e+00 7.2328735374075170e-01 0.0000000000000000e+00  1.4159953361965900e+00 7.2573380358375006e-01 0.0000000000000000e+00  2.0929733018213703e+00 -3.3101263528659858e-01 0.0000000000000000e+00  2.6059691358777886e+00 2.8733780239965662e-01 0.0000000000000000e+00  7.0411012481101806e-02 1.4764999488040666e-02 0.0000000000000000e+00  2.8120275910711952e+00 1.1804110145133331e-01 0.0000000000000000e+00  2.5608528129996738e-01 -9.4313548962795618e-02 0.0000000000000000e+00  1.8325999421459525e+00 -1.2658428113853767e-01 0.0000000000000000e+00  3.0655904444843856e+00 2.5969216914436827e-01 0.0000000000000000e+00  2.7963901368752362e+00 1.2178225451958782e-01 0.0000000000000000e+00  6.0051993951799143e-01 3.5069276363401281e-01 0.0000000000000000e+00  2.4211026898899009e-03 -1.6251543545510221e-02 0.0000000000000000e+00  4.6182058254595953e-01 2.5104209156404939e-01 0.0000000000000000e+00  5.0232896985728942e-02 -2.1420399768111331e-02 0.0000000000000000e+00  1.9319653741795744e+00 1.5506290409805107e-01 0.0000000000000000e+00  1.5085752427413015e+00 -6.2325827861063876e-01 0.0000000000000000e+00  1.5087738772054055e-01 3.7417414204067412e-02 0.0000000000000000e+00  1.0883644363585094e+00 8.3496404136230640e-01 0.0000000000000000e+00  2.2017331800971851e+00 3.7324970737051882e-01 0.0000000000000000e+00  1.1444777771744736e+00 9.4489608580364726e-01 0.0000000000000000e+00  8.4272264989083290e-01 -5.5052430620098403e-01 0.0000000000000000e+00  2.0275290994990902e+00 4.7807038064097573e-01 0.0000000000000000e+00  1.3891623029292424e+00 7.0614530730405156e-01 0.0000000000000000e+00  8.9595535120049652e-01 6.9046059824458839e-01 0.0000000000000000e+00  -2.1477031596108673e-02 -1.4883637852986320e-02 0.0000000000000000e+00  1.9223126513761750e+00 1.5987349376777577e-01 0.0000000000000000e+00  2.6260701208591146e+00 -3.8123633370514404e-01 0.0000000000000000e+00  7.8461797888185539e-02 7.5546364935744070e-02 0.0000000000000000e+00  9.0108093154998081e-01 -6.2892940940499853e-01 0.0000000000000000e+00  1.2300441010420047e+00 -8.4433489608883372e-01 0.0000000000000000e+00  2.8577888224568868e+00 -9.7642007003765949e-02 0.0000000000000000e+00  2.8620598559175436e-01 1.2678695738150544e-01 0.0000000000000000e+00  2.1264634745987537e-01 -2.8475351936728449e-01 0.0000000000000000e+00  3.0032817735992925e+00 2.8897827061629805e-01 0.0000000000000000e+00  1.4513929695323962e+00 8.4883628227038110e-01 0.0000000000000000e+00  4.1085814720237861e-02 -1.1292010192725203e-01 0.0000000000000000e+00  2.6422795065065058e-01 -1.3393984396343869e-01 0.0000000000000000e+00  1.5192725407861707e+00 8.0473424240918845e-01 0.0000000000000000e+00  1.6055726642335220e+00 7.8386485313855248e-01 0.0000000000000000e+00  1.8214159842414963e+00 7.1702838191716267e-01 0.0000000000000000e+00  1.2205133536921871e+00 -8.8273534044135582e-01 0.0000000000000000e+00  2.5464029078703145e+00 2.9387124770903950e-01 0.0000000000000000e+00  1.1110732684143907e+00 -8.4749591488892417e-01 0.0000000000000000e+00  3.4768520672239334e-01 3.0195346353099617e-01 0.0000000000000000e+00  5.1716127535949385e-01 -4.5075594505040945e-01 0.0000000000000000e+00  1.4303506167012114e+00 7.6750796596662141e-01 0.0000000000000000e+00  1.6105403639663183e+00 -7.3614182618564861e-01 0.0000000000000000e+00  8.1443243047796665e-01 6.6284302983420440e-01 0.0000000000000000e+00  2.9905181656319133e+00 -3.9415462091485420e-01 0.0000000000000000e+00  1.8252411012855119e-01 