<?xml version="1.0"?>
<VTKFile type="UnstructuredGrid"  version="0.1"  >
<UnstructuredGrid>
<Piece  NumberOfPoints="2868" NumberOfCells="5400">
<Points>
<DataArray  type="Float64"  NumberOfComponents="3"  format="ascii">0.534923 0.326073 0  0.510642 0.314196 0  0.466125 0.293082 0  0.436448 0.281205 0  0.409468 0.275927 0  0.368998 0.270648 0  0.35281 0.275927 0  0.381139 0.302319 0  0.405421 0.326073 0  0.410817 0.33531 0  0.408119 0.349826 0  0.400025 0.357744 0  0.375743 0.368301 0  0.329878 0.392055 0  0.297502 0.432963 0  0.282663 0.476511 0  0.285361 0.524018 0  0.298851 0.572845 0  0.317737 0.6045160000000001 0  0.337972 0.6361869999999999 0  0.360904 0.674457 0  0.368998 0.69953 0  0.359555 0.7219640000000001 0  0.360904 0.757594 0  0.370347 0.766831 0  0.381139 0.762872 0  0.390582 0.741758 0  0.404072 0.720644 0  0.424307 0.707448 0  0.447239 0.702169 0  0.480964 0.704808 0  0.479615 0.6889729999999999 0  0.468823 0.675776 0  0.447239 0.6691780000000001 0  0.428354 0.6691780000000001 0  0.410817 0.6639 0  0.404072 0.653343 0  0.395978 0.628269 0  0.387884 0.59132 0  0.389233 0.576804 0  0.397327 0.557009 0  0.410817 0.547772 0  0.424307 0.546452 0  0.437797 0.55305 0  0.44589 0.5662469999999999 0  0.441843 0.582082 0  0.439145 0.5979179999999999 0  0.449937 0.609795 0  0.468823 0.603196 0  0.479615 0.59 0  0.489058 0.570205 0  0.494454 0.546452 0  0.505246 0.522699 0  0.522783 0.509502 0  0.55246 0.494986 0  0.586185 0.484429 0  0.615863 0.48047 0  0.64554 0.473872 0  0.6671240000000001 0.461995 0  0.683312 0.451438 0  0.696802 0.435603 0  0.703547 0.417128 0  0.7116400000000001 0.393374 0  0.7183850000000001 0.37226 0  0.7251300000000001 0.364342 0  0.739969 0.353785 0  0.7453650000000001 0.344548 0  0.7453650000000001 0.327393 0  0.737271 0.318155 0  0.7183850000000001 0.316835 0  0.7008490000000001 0.319475 0  0.677916 0.318155 0  0.650936 0.316835 0  0.610467 0.318155 0  0.57944 0.324753 0  0.559205 0.328712 0  0.5389699999999999 0.326073 0  1 1 0  1 0 0  0 0 0  0 1 0  0.532238 0.32476 0  0.528748 0.323052 0  0.52421 0.320833 0  0.518311 0.317947 0  0.503447 0.310783 0  0.494093 0.306347 0  0.481933 0.30058 0  0.452151 0.28749 0  0.392327 0.273691 0  0.379141 0.271971 0  0.360474 0.283066 0  0.369797 0.291752 0  0.391424 0.31238 0  0.399335 0.32012 0  0.40958 0.341964 0  0.393939 0.36039 0  0.386028 0.36383 0  0.364248 0.374254 0  0.349304 0.381994 0  0.315801 0.409841 0  0.292986 0.551616 0  0.350934 0.657818 0  0.360127 0.737055 0  0.360566 0.748664 0  0.385245 0.753692 0  0.396447 0.732578 0  0.466301 0.703661 0  0.459439 0.672908 0  0.418442 0.666195 0  0.400553 0.642441 0  0.39255 0.612619 0  0.389913 0.60058 0  0.392752 0.568197 0  0.444131 0.573132 0  0.458149 0.606926 0  0.5005540000000001 0.533026 0  0.571522 0.489019 0  0.632637 0.476741 0  0.689177 0.444553 0  0.708121 0.403702 0  0.715453 0.38144 0  0.732406 0.359166 0  0.7453650000000001 0.337089 0  0.72906 0.317581 0  0.629879 0.317522 0  0.59293 0.321884 0  0.568003 0.326991 0  0.55202 0.327775 0  0.546493 0.327054 0  0.542241 0.326499 0  1 0.9 0  1 0.8 0  1 0.7 0  1 0.6 0  1 0.5 0  1 0.4 0  1 0.3 0  1 0.2 0  1 0.1 0  0.9 0 0  0.8 0 0  0.7 0 0  0.6 0 0  0.5 0 0  0.4 0 0  0.3 0 0  0.2 0 0  0.1 0 0  0.1 1 0  0.2 1 0  0.3 1 0  0.4 1 0  0.5 1 0  0.6 1 0  0.7 1 0  0.8 1 0  0.9 1 0  0 0.1 0  0 0.2 0  0 0.3 0  0 0.4 0  0 0.5 0  0 0.6 0  0 0.7 0  0 0.8 0  0 0.9 0  0.535686 0.5031910000000001 0  0.753987 0.733359 0  0.167145 0.741436 0  0.173378 0.257204 0  0.733497 0.159862 0  0.554096 0.15788 0  0.849187 0.479053 0  0.488793 0.838452 0  0.138507 0.5592 0  0.30686 0.154944 0  0.348904 0.890523 0  0.058006 0.065099 0  0.06984899999999999 0.937917 0  0.93633 0.939704 0  0.934625 0.053613 0  0.343397 0.333452 0  0.473272 0.639943 0  0.433266 0.638072 0  0.415174 0.58269 0  0.533435 0.545042 0  0.390848 0.340652 0  0.53655 0.320242 0  0.127966 0.393775 0  0.83861 0.850455 0  0.635242 0.8551299999999999 0  0.852158 0.633441 0  0.653427 0.626848 0  0.861226 0.24292 0  0.166128 0.12976 0  0.216875 0.8698709999999999 0  0.458305 0.11179 0  0.84446 0.101633 0  0.202024 0.642528 0  0.644825 0.115855 0  0.671342 0.218358 0  0.251354 0.286186 0  0.262388 0.75153 0  0.063044 0.751571 0  0.068189 0.242962 0  0.435781 0.9053949999999999 0  0.934144 0.451133 0  0.568393 0.237622 0  0.814984 0.395506 0  0.752951 0.517227 0  0.456254 0.780699 0  0.073352 0.531116 0  0.337731 0.206071 0  0.363213 0.960371 0  0.330742 0.363592 0  0.516613 0.55705 0  0.369057 0.332992 0  0.500926 0.617309 0  0.498004 0.665534 0  0.412142 0.61178 0  0.454233 0.6366039999999999 0  0.422782 0.567496 0  0.541193 0.5214800000000001 0  0.439761 0.65557 0  0.5163 0.533672 0  0.414775 0.64562 0  0.40073 0.576135 0  0.430362 0.5880339999999999 0  0.385432 0.351492 0  0.400298 0.335397 0  0.398325 0.348194 0  0.528702 0.314885 0  0.540814 0.322334 0  0.534477 0.322953 0  0.619095 0.743583 0  0.885162 0.737972 0  0.08076 0.668849 0  0.90734 0.36634 0  0.09468699999999999 0.868937 0  0.759838 0.912152 0  0.901518 0.540898 0  0.747285 0.607479 0  0.229182 0.071641 0  0.06915399999999999 0.450091 0  0.244775 0.203309 0  0.076534 0.331755 0  0.897847 0.167826 0  0.578909 0.911415 0  0.07713299999999999 0.146341 0  0.477215 0.203448 0  0.922631 0.869341 0  0.517415 0.074785 0  0.297026 0.827793 0  0.7832710000000001 0.246505 0  0.74519 0.061079 0  0.36033 0.069068 0  0.210313 0.475228 0  0.859426 0.928758 0  0.5745479999999999 0.609182 0  0.243069 0.383398 0  0.283099 0.934598 0  0.417416 0.843141 0  0.643942 0.553164 0  0.112687 0.079336 0  0.281357 0.658386 0  0.765043 0.436177 0  0.611361 0.198486 0  0.234496 0.58911 0  0.206479 0.702638 0  0.679608 0.155818 0  0.62682 0.259978 0  0.690538 0.264164 0  0.448938 0.956308 0  0.808154 0.328403 0  0.379583 0.91913 0  0.308083 0.297769 0  0.312358 0.730249 0  0.563101 0.278576 0  0.435597 0.746198 0  0.385475 0.225229 0  0.572248 0.518034 0  0.357864 0.35422 0  0.497647 0.641694 0  0.458101 0.655768 0  0.360474 0.310727 0  0.467038 0.620139 0  0.47798 0.659909 0  0.41102 0.628072 0  0.48324 0.609015 0  0.427544 0.617941 0  0.388633 0.328253 0  0.405336 0.599404 0  0.408351 0.565178 0  0.42395 0.600985 0  0.431562 0.576523 0  0.424905 0.6551979999999999 0  0.398064 0.58782 0  0.427739 0.557934 0  0.5192909999999999 0.303443 0  0.53142 0.320293 0  0.5449000000000001 0.323642 0  0.537166 0.323513 0  0.153974 0.920841 0  0.9181859999999999 0.67343 0  0.759946 0.820588 0  0.5375259999999999 0.783091 0  0.816532 0.545843 0  0.813991 0.178083 0  0.836774 0.702023 0  0.149815 0.318856 0  0.662287 0.923338 0  0.680146 0.791192 0  0.708961 0.663172 0  0.9372779999999999 0.287318 0  0.574622 0.6881660000000001 0  0.5894740000000001 0.076262 0  0.502822 0.926683 0  0.222269 0.811068 0  0.380457 0.164786 0  0.15321 0.684154 0  0.458063 0.051413 0  0.161702 0.056026 0  0.199351 0.198818 0  0.298946 0.09553200000000001 0  0.902465 0.795949 0  0.121139 0.791477 0  0.906269 0.112287 0  0.056109 0.822332 0  0.512172 0.13237 0  0.940964 0.741805 0  0.888887 0.408777 0  0.354543 0.825964 0  0.808736 0.068638 0  0.068507 0.394071 0  0.719105 0.563843 0  0.247287 0.149664 0  0.293062 0.237128 0  0.240524 0.434997 0  0.141255 0.623289 0  0.945202 0.160621 0  0.502914 0.247629 0  0.144669 0.480811 0  0.665025 0.060817 0  0.728047 0.224344 0  0.861995 0.313312 0  0.200068 0.534235 0  0.253262 0.965623 0  0.893804 0.49307 0  0.604391 0.572456 0  0.947088 0.345347 0  0.439372 0.227307 0  0.629847 0.159823 0  0.273405 0.880181 0  0.302744 0.776823 0  0.781502 0.295365 0  0.275342 0.349602 0  0.7283849999999999 0.472798 0  0.229136 0.246478 0  0.807794 0.480346 0  0.709476 0.112786 0  0.275506 0.694991 0  0.771674 0.394419 0  0.449715 0.861802 0  0.419159 0.799696 0  0.674851 0.503139 0  0.280443 0.61016 0  0.572443 0.192538 0  0.393113 0.87525 0  0.405555 0.948428 0  0.330942 0.934103 0  0.540509 0.597101 0  0.312763 0.6689310000000001 0  0.254368 0.540179 0  0.595265 0.25915 0  0.606679 0.234099 0  0.657131 0.279138 0  0.722458 0.279478 0  0.333 0.308056 0  0.351529 0.246142 0  0.455714 0.7257940000000001 0  0.585239 0.295143 0  0.340062 0.72492 0  0.545593 0.293773 0  0.555449 0.545426 0  0.414311 0.737314 0  0.590854 0.502323 0  0.350507 0.368444 0  0.484423 0.625665 0  0.483899 0.674542 0  0.378137 0.317274 0  0.446416 0.646404 0  0.373532 0.347654 0  0.446876 0.619769 0  0.466106 0.666068 0  0.437545 0.609254 0  0.434988 0.565726 0  0.41462 0.656829 0  0.418803 0.556961 0  0.398425 0.327446 0  0.517803 0.310421 0  0.549516 0.322918 0  0.57701 0.842889 0  0.8291269999999999 0.773906 0  0.643235 0.684732 0  0.134281 0.207734 0  0.865997 0.055966 0  0.680959 0.723345 0  0.165229 0.8415550000000001 0  0.54558 0.959672 0  0.783726 0.656439 0  0.913315 0.595533 0  0.699439 0.860667 0  0.785839 0.125076 0  0.551673 0.037713 0  0.9200970000000001 0.223214 0  0.206406 0.299726 0  0.087064 0.596401 0  0.935644 0.394252 0  0.964557 0.252582 0  0.230124 0.928346 0  0.120579 0.271764 0  0.8572149999999999 0.524082 0  0.7670979999999999 0.5551469999999999 0  0.936094 0.507131 0  0.804064 0.59585 0  0.700565 0.608273 0  0.429773 0.174231 0  0.117746 0.727333 0  0.5389620000000001 0.730231 0  0.862761 0.359173 0  0.821444 0.284046 0  0.193552 0.35818 0  0.234923 0.505555 0  0.193209 0.421217 0  0.220144 0.755896 0  0.594015 0.131642 0  0.283813 0.195855 0  0.517519 0.213961 0  0.553509 0.639116 0  0.280391 0.378018 0  0.852183 0.436817 0  0.746983 0.197173 0  0.821806 0.221318 0  0.449853 0.828453 0  0.883758 0.453926 0  0.183484 0.589542 0  0.348384 0.129314 0  0.255254 0.838525 0  0.504849 0.798516 0  0.320344 0.863432 0  0.611669 0.525425 0  0.265864 0.804962 0  0.72056 0.521442 0  0.613372 0.6101220000000001 0  0.481262 0.881068 0  0.655778 0.191988 0  0.701921 0.196918 0  0.5658260000000001 0.5731810000000001 0  0.46914 0.240927 0  0.343219 0.173284 0  0.888786 0.278502 0  0.244113 0.6750930000000001 0  0.739546 0.417914 0  0.784023 0.355942 0  0.326805 0.265549 0  0.248616 0.6
[...]
<PointData  Vectors="f_21"> 
<DataArray  type="Float64"  Name="f_21"  NumberOfComponents="3" format="ascii">1.2273000600027182e+00 2.0845022185738160e-01 0.0000000000000000e+00  1.1872306680599030e+00 2.3195403160130634e-01 0.0000000000000000e+00  1.0573996522792135e+00 2.7302837624301873e-01 0.0000000000000000e+00  9.3651294140854402e-01 2.9141295122686572e-01 0.0000000000000000e+00  8.1842477252596590e-01 2.9479301264479674e-01 0.0000000000000000e+00  6.0952920568000801e-01 2.9201189018779172e-01 0.0000000000000000e+00  4.8264134283781684e-01 2.6352728588355112e-01 0.0000000000000000e+00  3.3992410141124746e-01 3.4102929128639092e-01 0.0000000000000000e+00  2.7062138116844586e-01 4.0073387654744042e-01 0.0000000000000000e+00  2.4458154719144637e-01 4.1576465788013628e-01 0.0000000000000000e+00  2.0302780518169947e-01 4.0805878439636967e-01 0.0000000000000000e+00  1.8009182014178990e-01 3.8477422473269923e-01 0.0000000000000000e+00  1.4956686697563309e-01 3.1325300363585190e-01 0.0000000000000000e+00  9.7598965280568134e-02 1.7110938803986450e-01 0.0000000000000000e+00  4.6328362987736058e-02 6.3953271566283901e-02 0.0000000000000000e+00  2.5056891043273265e-02 -1.4949362784942936e-02 0.0000000000000000e+00  2.8803374613551303e-02 -8.5691521143348950e-02 0.0000000000000000e+00  4.8487424796806566e-02 -1.6257063259330584e-01 0.0000000000000000e+00  7.7637276683011541e-02 -2.3184070722001135e-01 0.0000000000000000e+00  1.2327614015597893e-01 -3.0586423039606642e-01 0.0000000000000000e+00  2.0633124842501863e-01 -3.9781614300505008e-01 0.0000000000000000e+00  2.7663202983092550e-01 -4.3524365401507703e-01 0.0000000000000000e+00  3.4680694420631314e-01 -4.2743779506356799e-01 0.0000000000000000e+00  5.7068221942797792e-01 -4.6816594984370968e-01 0.0000000000000000e+00  7.5089294219589975e-01 -5.1358594294057713e-01 0.0000000000000000e+00  8.9877029008898202e-01 -5.1644796822692685e-01 0.0000000000000000e+00  1.1180012536159898e+00 -5.0378680183555502e-01 0.0000000000000000e+00  1.2275358490549308e+00 -4.5400699654486359e-01 0.0000000000000000e+00  1.2758720183267875e+00 -3.9767102664473436e-01 0.0000000000000000e+00  1.2990147430274666e+00 -3.5474872192295304e-01 0.0000000000000000e+00  1.3669444083503572e+00 -3.5197296059262856e-01 0.0000000000000000e+00  1.4731252101012369e+00 -3.8135284735524222e-01 0.0000000000000000e+00  1.5232538822241743e+00 -4.2348760598894114e-01 0.0000000000000000e+00  1.5390982428313154e+00 -5.0433277393633424e-01 0.0000000000000000e+00  1.5355267199828140e+00 -5.7715864367736813e-01 0.0000000000000000e+00  1.5546716505063545e+00 -6.4317067119887339e-01 0.0000000000000000e+00  1.5935268253460293e+00 -6.6799636034528664e-01 0.0000000000000000e+00  1.6846407636757292e+00 -6.9703159188488517e-01 0.0000000000000000e+00  1.8147118268826583e+00 -7.2406861792768973e-01 0.0000000000000000e+00  1.8644764982876019e+00 -7.1900331602453671e-01 0.0000000000000000e+00  1.9319611310723557e+00 -6.9102263994570368e-01 0.0000000000000000e+00  1.9636125230338528e+00 -6.4464332865814300e-01 0.0000000000000000e+00  1.9682130138131357e+00 -5.9798802555216157e-01 0.0000000000000000e+00  1.9453803453865606e+00 -5.5113602257917016e-01 0.0000000000000000e+00  1.8998435942367988e+00 -5.2308423545598659e-01 0.0000000000000000e+00  1.8460128392646284e+00 -5.3612630199409017e-01 0.0000000000000000e+00  1.7933123850575665e+00 -5.4121534311798103e-01 0.0000000000000000e+00  1.7513457589547534e+00 -4.9354529067117847e-01 0.0000000000000000e+00  1.7692298341405350e+00 -4.1370519046425375e-01 0.0000000000000000e+00  1.8012729887593277e+00 -3.6960353834024484e-01 0.0000000000000000e+00  1.8438028484153295e+00 -3.3272458868205673e-01 0.0000000000000000e+00  1.8915738106806128e+00 -3.1230308481201080e-01 0.0000000000000000e+00  1.9388126308070821e+00 -2.8524859142345232e-01 0.0000000000000000e+00  1.9637588764135030e+00 -2.4587204290101450e-01 0.0000000000000000e+00  1.9858140244891138e+00 -1.8172049220179420e-01 0.0000000000000000e+00  1.9951308087375756e+00 -1.1597281679573566e-01 0.0000000000000000e+00  1.9910293401818404e+00 -6.2921031393231783e-02 0.0000000000000000e+00  1.9858772940706060e+00 -1.0461732063548234e-02 0.0000000000000000e+00  1.9846682295835925e+00 2.6529681374706883e-02 0.0000000000000000e+00  1.9800029473609684e+00 5.8064501074548899e-02 0.0000000000000000e+00  1.9708862197788033e+00 8.9583493712396212e-02 0.0000000000000000e+00  1.9540493606954648e+00 1.1382545637159250e-01 0.0000000000000000e+00  1.9271597387625272e+00 1.3648491685809908e-01 0.0000000000000000e+00  1.8983433450765266e+00 1.4688574189395975e-01 0.0000000000000000e+00  1.8883196215859654e+00 1.4629333005005996e-01 0.0000000000000000e+00  1.8645591861718425e+00 1.5327965762281265e-01 0.0000000000000000e+00  1.8297794617997913e+00 1.6149545175591071e-01 0.0000000000000000e+00  1.7375776125218345e+00 1.7391188232460314e-01 0.0000000000000000e+00  1.6555099398659159e+00 1.8295520339269095e-01 0.0000000000000000e+00  1.5702715575412767e+00 1.7855895475950204e-01 0.0000000000000000e+00  1.5228409700810421e+00 1.7586917360153170e-01 0.0000000000000000e+00  1.4727826610446519e+00 1.8268309340691835e-01 0.0000000000000000e+00  1.4088064412380621e+00 1.9158586243842907e-01 0.0000000000000000e+00  1.3172924850132102e+00 1.9816390600875336e-01 0.0000000000000000e+00  1.2627372607557132e+00 1.9502971016660561e-01 0.0000000000000000e+00  1.2445495976796388e+00 1.9612728514026817e-01 0.0000000000000000e+00  1.2292697253339373e+00 2.0574071042961223e-01 0.0000000000000000e+00  1.5763560216544226e+00 1.9563605589480948e-01 0.0000000000000000e+00  1.5172034256962457e+00 -2.2019773492149338e-02 0.0000000000000000e+00  0.0000000000000000e+00 0.0000000000000000e+00 0.0000000000000000e+00  0.0000000000000000e+00 0.0000000000000000e+00 0.0000000000000000e+00  1.2247440798848255e+00 2.1095386817278086e-01 0.0000000000000000e+00  1.2202444911524168e+00 2.1428967780598704e-01 0.0000000000000000e+00  1.2132657367562096e+00 2.1866060737780826e-01 0.0000000000000000e+00  1.2028924973614741e+00 2.2447075960470739e-01 0.0000000000000000e+00  1.1709054929419096e+00 2.3879224021206313e-01 0.0000000000000000e+00  1.1471400726313907e+00 2.4777169795301093e-01 0.0000000000000000e+00  1.1122399021101939e+00 2.5903277190709728e-01 0.0000000000000000e+00  1.0052648372386221e+00 2.8313493801314910e-01 0.0000000000000000e+00  7.4240310724674263e-01 2.9328302822246544e-01 0.0000000000000000e+00  6.7747600712256784e-01 2.9278050635643710e-01 0.0000000000000000e+00  4.2163526594751155e-01 2.9488844204861858e-01 0.0000000000000000e+00  3.7803045409232022e-01 3.1637450949993923e-01 0.0000000000000000e+00  3.0921269021212350e-01 3.6447203340091239e-01 0.0000000000000000e+00  2.8725510776334345e-01 3.8443869417752213e-01 0.0000000000000000e+00  2.2564059557184879e-01 4.1225180530404587e-01 0.0000000000000000e+00  1.7234693938034154e-01 3.6712072957973396e-01 0.0000000000000000e+00  1.6226983869872819e-01 3.4398010336428497e-01 0.0000000000000000e+00  1.3377812289342422e-01 2.7800738982522577e-01 0.0000000000000000e+00  1.1590823732930519e-01 2.3192632172003066e-01 0.0000000000000000e+00  7.1266016643392494e-02 1.2405798243164359e-01 0.0000000000000000e+00  3.8238693454910683e-02 -1.2746665322437897e-01 0.0000000000000000e+00  1.6571391268674412e-01 -3.5759036003758499e-01 0.0000000000000000e+00  4.1469218861170043e-01 -4.5044385491123884e-01 0.0000000000000000e+00  4.8666844906334489e-01 -4.6639854222992516e-01 0.0000000000000000e+00  1.0247344641931548e+00 -5.2090467978801724e-01 0.0000000000000000e+00  1.1726225298519746e+00 -4.8100881050572802e-01 0.0000000000000000e+00  1.3202431477139245e+00 -3.3910077457080012e-01 0.0000000000000000e+00  1.5299738097151359e+00 -4.5822232482877717e-01 0.0000000000000000e+00  1.5462137473316551e+00 -6.1469754308375935e-01 0.0000000000000000e+00  1.6333921090773045e+00 -6.8081256124339451e-01 0.0000000000000000e+00  1.7406019275282172e+00 -7.0879446926923417e-01 0.0000000000000000e+00  1.7827426147581935e+00 -7.1743214287908064e-01 0.0000000000000000e+00  1.8938002306056805e+00 -7.0677314727473439e-01 0.0000000000000000e+00  1.8763130268753578e+00 -5.2898560710120224e-01 0.0000000000000000e+00  1.7606154279826178e+00 -4.5832414274138578e-01 0.0000000000000000e+00  1.9181403060521505e+00 -2.9658210643907468e-01 0.0000000000000000e+00  1.9915164704088024e+00 -1.4359111272093925e-01 0.0000000000000000e+00  1.9890095046127887e+00 -3.3499580005468613e-02 0.0000000000000000e+00  1.9767742473978787e+00 7.2213044599226242e-02 0.0000000000000000e+00  1.9397967667831035e+00 1.2775166462769585e-01 0.0000000000000000e+00  1.9108262753019476e+00 1.4411756679099230e-01 0.0000000000000000e+00  1.8786109170232572e+00 1.4802736709854064e-01 0.0000000000000000e+00  1.7947216306290348e+00 1.7378480148995842e-01 0.0000000000000000e+00  1.6129982243663499e+00 1.7943075139841572e-01 0.0000000000000000e+00  1.3599804370587465e+00 1.9513996664048941e-01 0.0000000000000000e+00  1.2822239849421833e+00 1.9640112253150682e-01 0.0000000000000000e+00  1.2506948202538641e+00 1.9490814139167861e-01 0.0000000000000000e+00  1.2399152560836557e+00 1.9876325300255338e-01 0.0000000000000000e+00  1.2354616713309587e+00 2.0149786231346611e-01 0.0000000000000000e+00  1.2319472211920721e+00 2.0380112033455505e-01 0.0000000000000000e+00  1.7002672426373788e+00 2.1920993450730303e-01 0.0000000000000000e+00  1.8309877985024774e+00 2.2019060028657222e-01 0.0000000000000000e+00  1.9470212880130535e+00 1.9610609940826057e-01 0.0000000000000000e+00  2.0371467776066234e+00 1.5051426372754545e-01 0.0000000000000000e+00  2.0750064178476104e+00 7.5359434729104557e-02 0.0000000000000000e+00  2.0299048438824849e+00 -1.1962431564408163e-02 0.0000000000000000e+00  1.9104755157031243e+00 -7.0239732609568423e-02 0.0000000000000000e+00  1.7680908641902922e+00 -7.7708383583818416e-02 0.0000000000000000e+00  1.6344143333386116e+00 -5.4083855045946434e-02 0.0000000000000000e+00  1.4223010376932701e+00 9.5984181752066730e-02 0.0000000000000000e+00  1.3221575219064814e+00 2.0805008637933017e-01 0.0000000000000000e+00  1.2055975570355708e+00 3.0989125631716674e-01 0.0000000000000000e+00  1.0751251625914160e+00 3.9235170849718154e-01 0.0000000000000000e+00  9.3164540904096771e-01 4.4538992896546742e-01 0.0000000000000000e+00  7.9033708580915596e-01 4.4689830379547979e-01 0.0000000000000000e+00  6.3823194055881793e-01 3.7703988500412877e-01 0.0000000000000000e+00  4.5713567958050394e-01 2.6690927460520703e-01 0.0000000000000000e+00  2.5252100005278677e-01 1.4998216359722194e-01 0.0000000000000000e+00  3.0562787528764906e-01 -2.1924786289475937e-01 0.0000000000000000e+00  5.2042262643836013e-01 -3.7534009809496433e-01 0.0000000000000000e+00  6.9330610577416363e-01 -4.9227914800338213e-01 0.0000000000000000e+00  8.1638719699640094e-01 -5.4189488170619859e-01 0.0000000000000000e+00  9.3612672928605134e-01 -4.7415540553668478e-01 0.0000000000000000e+00  1.0869808026996457e+00 -3.4562884378378211e-01 0.0000000000000000e+00  1.2352928777501733e+00 -2.0917300628950805e-01 0.0000000000000000e+00  1.3656109084937640e+00 -6.3892370568792267e-02 0.0000000000000000e+00  1.4786626693490679e+00 7.3264830295393310e-02 0.0000000000000000e+00  0.0000000000000000e+00 0.0000000000000000e+00 0.0000000000000000e+00  0.0000000000000000e+00 0.0000000000000000e+00 0.0000000000000000e+00  0.0000000000000000e+00 0.0000000000000000e+00 0.0000000000000000e+00  0.0000000000000000e+00 0.0000000000000000e+00 0.0000000000000000e+00  0.0000000000000000e+00 0.0000000000000000e+00 0.0000000000000000e+00  0.0000000000000000e+00 0.0000000000000000e+00 0.0000000000000000e+00  0.0000000000000000e+00 0.0000000000000000e+00 0.0000000000000000e+00  0.0000000000000000e+00 0.0000000000000000e+00 0.0000000000000000e+00  0.0000000000000000e+00 0.0000000000000000e+00 0.0000000000000000e+00  1.9739262450709489e+00 -2.1743807782526406e-01 0.0000000000000000e+00  1.6813978792046822e+00 4.8447973857529475e-03 0.0000000000000000e+00  1.8194538444850406e-01 -1.0137800259008939e-01 0.0000000000000000e+00  2.0344110950174527e-01 3.1933718819680761e-02 0.0000000000000000e+00  1.4018520200738198e+00 2.2175000312214219e-01 0.0000000000000000e+00  1.0900996185219567e+00 3.2651344901058504e-01 0.0000000000000000e+00  1.9989696792646940e+00 8.7563335794841921e-02 0.0000000000000000e+00  1.0540961316251798e+00 -3.9040229163341883e-01 0.0000000000000000e+00  2.1602248967275937e-02 -3.6847396107519616e-02 0.0000000000000000e+00  5.7073131390857013e-01 2.8067026557428104e-01 0.0000000000000000e+00  7.3867134212582375e-01 -4.8049642060992098e-01 0.0000000000000000e+00  1.0788147389605157e-01 5.3522443792173635e-02 0.0000000000000000e+00  1.5423652323249606e-01 -1.1157841310256103e-01 0.0000000000000000e+00  1.5918693384551466e+00 1.3449860982333101e-01 0.0000000000000000e+00  1.5170351282419814e+00 3.8922818738488033e-02 0.0000000000000000e+00  2.3956225587103966e-01 2.2462411449487105e-01 0.0000000000000000e+00  1.6478359483925864e+00 -4.0353150449861630e-01 0.0000000000000000e+00  1.6496477515761643e+00 -5.5813476010581065e-01 0.0000000000000000e+00  1.8446586614359322e+00 -6.2874151387646127e-01 0.0000000000000000e+00  1.8938133404389255e+00 -2.2378111638455872e-01 0.0000000000000000e+00  2.2887205469980354e-01 3.5929530032966833e-01 0.0000000000000000e+00  1.2216359648439714e+00 2.0855475849773261e-01 0.0000000000000000e+00  4.3880751641615465e-02 -3.5647441550120652e-02 0.0000000000000000e+00  1.6157616234073007e+00 3.6904792447516918e-02 0.0000000000000000e+00  1.3228402118661837e+00 -2.0586686902938453e-01 0.0000000000000000e+00  1.9070052500082904e+00 9.6147713440956517e-02 0.0000000000000000e+00  1.7644897516071143e+00 -3.6055568354368468e-02 0.0000000000000000e+00  1.6915118257153823e+00 6.9345621815632141e-02 0.0000000000000000e+00  2.8760013413984897e-01 1.2819157060594716e-01 0.0000000000000000e+00  4.3198681417982265e-01 -2.8362734427828162e-01 0.0000000000000000e+00  8.7974688125483436e-01 3.9335303110305281e-01 0.0000000000000000e+00  1.4789021363492030e+00 1.2849464112210093e-01 0.0000000000000000e+00  9.2552121724790243e-02 -8.2773052650241027e-02 0.0000000000000000e+00  1.2258644322138932e+00 3.0399793024930649e-01 0.0000000000000000e+00  1.3681615260650242e+00 2.4164680244954717e-01 0.0000000000000000e+00  2.7904463725480183e-01 7.6802647790871967e-02 0.0000000000000000e+00  3.4828334339067457e-01 -2.1377895485376802e-01 0.0000000000000000e+00  6.2461836600471603e-02 -2.4147482507905490e-02 0.0000000000000000e+00  7.3427896824129729e-02 -6.4232594729512673e-03 0.0000000000000000e+00  8.9465605985275742e-01 -4.8800883674307000e-01 0.0000000000000000e+00  2.0266089683569901e+00 5.6871198773692649e-02 0.0000000000000000e+00  1.1888393848426739e+00 2.5804356156752811e-01 0.0000000000000000e+00  1.9412139837003046e+00 8.4039079286252899e-02 0.0000000000000000e+00  1.9565524069814864e+00 8.2122637683662889e-02 0.0000000000000000e+00  1.0815805664572924e+00 -3.8662162337004391e-01 0.0000000000000000e+00  1.0177338101523801e-02 -1.9593656918950438e-02 0.0000000000000000e+00  6.1193029425981127e-01 2.8540797530389639e-01 0.0000000000000000e+00  7.6691356009200484e-01 -5.1573044860626027e-01 0.0000000000000000e+00  1.6117238889867216e-01 1.8104041243395771e-01 0.0000000000000000e+00  1.8707067895069314e+00 -2.6335989732001125e-01 0.0000000000000000e+00  2.4752891453616363e-01 2.9905444248958429e-01 0.0000000000000000e+00  1.7250365126216338e+00 -3.1024971183407885e-01 0.0000000000000000e+00  1.5670153805035372e+00 -3.2012083780205902e-01 0.0000000000000000e+00  1.7438004307786370e+00 -6.3887804601211706e-01 0.0000000000000000e+00  1.6558779116978828e+00 -4.7564031254712558e-01 0.0000000000000000e+00  1.8960014652763997e+00 -6.0284388654408605e-01 0.0000000000000000e+00  1.9384730386214548e+00 -2.0545969487365318e-01 0.0000000000000000e+00  1.5873611573007234e+00 -5.3265090500070922e-01 0.0000000000000000e+00  1.9167024722203192e+00 -2.6149862578822602e-01 0.0000000000000000e+00  1.6218861289911264e+00 -6.2839789704022109e-01 0.0000000000000000e+00  1.8668403926720687e+00 -6.7935758150727887e-01 0.0000000000000000e+00  1.8265890790276302e+00 -5.7460984032981899e-01 0.0000000000000000e+00  1.9781110131144469e-01 3.4273671624087509e-01 0.0000000000000000e+00  2.4427279883144754e-01 3.8617625320418469e-01 0.0000000000000000e+00  2.0764275769016677e-01 3.8003674913420504e-01 0.0000000000000000e+00  1.2067417387656281e+00 2.1592755403296307e-01 0.0000000000000000e+00  1.2273117148494206e+00 2.0554682824096623e-01 0.0000000000000000e+00  1.2234606634418335e+00 2.0929280142705742e-01 0.0000000000000000e+00  1.4813326692723292e+00 -1.3902035934193485e-01 0.0000000000000000e+00  1.8125998403945998e+00 1.0520087570171148e-01 0.0000000000000000e+00  4.3917923033045439e-02 -1.9668026917416852e-02 0.0000000000000000e+00  1.9374971637324290e+00 3.3240692316401782e-02 0.0000000000000000e+00  1.6536423949419138e-01 -1.0799240230647410e-01 0.0000000000000000e+00  1.4393375357734335e+00 -8.3470396874158206e-02 0.0000000000000000e+00  2.0090449129051899e+00 9.6850635980149494e-02 0.0000000000000000e+00  1.8622089433110869e+00 5.2597064030889575e-02 0.0000000000000000e+00  4.5282060906857596e-01 2.5109478253977147e-01 0.0000000000000000e+00  1.3252505655057234e-02 -2.5719856963341413e-02 0.0000000000000000e+00  3.9471481303337341e-01 1.5044942478911799e-01 0.0000000000000000e+00  4.7512770739941625e-02 -2.6890840124369431e-02 0.0000000000000000e+00  1.6218818868065921e+00 5.2007014939914123e-02 0.0000000000000000e+00  1.1544913832056807e+00 -3.2064211996145925e-01 0.0000000000000000e+00  1.1446780043737596e-01 3.4176656297671394e-02 0.0000000000000000e+00  9.4777898034330965e-01 3.3111174576045516e-01 0.0000000000000000e+00  1.6730903695654207e+00 1.2867738427244521e-01 0.0000000000000000e+00  9.8100449844297288e-01 3.9749670674616527e-01 0.0000000000000000e+00  5.9028563519553523e-01 -3.6349507506967310e-01 0.0000000000000000e+00  1.5865883335986870e+00 1.4610575887601246e-01 0.0000000000000000e+00  1.3200483934452245e+00 2.4274979920140705e-01 0.0000000000000000e+00  7.0299166460620077e-01 3.8869426746556379e-01 0.0000000000000000e+00  1.5887049497199303e-02 -3.7098372606456514e-02 0.0000000000000000e+00  1.5320649097413195e+00 4.1265147513738096e-02 0.0000000000000000e+00  1.7602398994778059e+00 -1.4320565371704633e-01 0.0000000000000000e+00  9.6133166302820774e-02 1.3785217625707342e-02 0.0000000000000000e+00  6.2230791451314904e-01 -4.3402777907507500e-01 0.0000000000000000e+00  8.8258421082138505e-01 -4.7923816068284025e-01 0.0000000000000000e+00  1.8845705171052181e+00 -2.4230088812534030e-02 0.0000000000000000e+00  2.1065343324808827e-01 1.0826412910124238e-01 0.0000000000000000e+00  1.5170270187083940e-01 -1.8760154216064548e-01 0.0000000000000000e+00  1.9725494622170214e+00 1.0272876389693546e-01 0.0000000000000000e+00  1.2379670569369554e+00 2.7438555424701788e-01 0.0000000000000000e+00  5.0133119198147703e-02 -9.1035626129013850e-02 0.0000000000000000e+00  1.7520509515286845e-01 -1.1351441240012596e-01 0.0000000000000000e+00  1.3167236139884588e+00 2.6332852147213914e-01 0.0000000000000000e+00  1.3274476193106652e+00 2.3207152163222255e-01 0.0000000000000000e+00  1.4549862877608450e+00 2.1479922767994541e-01 0.0000000000000000e+00  8.9448274249905801e-01 -4.9896909857756033e-01 0.0000000000000000e+00  1.8033963913706219e+00 8.3934835844297395e-02 0.0000000000000000e+00  7.9359517062346607e-01 -5.0612883225799910e-01 0.0000000000000000e+00  3.2613368431782352e-01 1.4934328574143435e-01 0.0000000000000000e+00  3.5613995167299811e-01 -2.8315890921664710e-01 0.0000000000000000e+00  1.2189189867214016e+00 2.2500404185032616e-01 0.0000000000000000e+00  1.1516059007474049e+00 -3.8502551307076860e-01 0.0000000000000000e+00  7.1871078361760987e-01 3.3377606490458045e-01 0.0000000000000000e+00  1.9407429041357178e+00 -1.4102554928559252e-01 0.0000000000000000e+00  1.8817995617393030e-01 