<?xml version="1.0"?>
<VTKFile type="UnstructuredGrid"  version="0.1"  >
<UnstructuredGrid>
<Piece  NumberOfPoints="2868" NumberOfCells="5400">
<Points>
<DataArray  type="Float64"  NumberOfComponents="3"  format="ascii">0.534923 0.326073 0  0.510642 0.314196 0  0.466125 0.293082 0  0.436448 0.281205 0  0.409468 0.275927 0  0.368998 0.270648 0  0.35281 0.275927 0  0.381139 0.302319 0  0.405421 0.326073 0  0.410817 0.33531 0  0.408119 0.349826 0  0.400025 0.357744 0  0.375743 0.368301 0  0.329878 0.392055 0  0.297502 0.432963 0  0.282663 0.476511 0  0.285361 0.524018 0  0.298851 0.572845 0  0.317737 0.6045160000000001 0  0.337972 0.6361869999999999 0  0.360904 0.674457 0  0.368998 0.69953 0  0.359555 0.7219640000000001 0  0.360904 0.757594 0  0.370347 0.766831 0  0.381139 0.762872 0  0.390582 0.741758 0  0.404072 0.720644 0  0.424307 0.707448 0  0.447239 0.702169 0  0.480964 0.704808 0  0.479615 0.6889729999999999 0  0.468823 0.675776 0  0.447239 0.6691780000000001 0  0.428354 0.6691780000000001 0  0.410817 0.6639 0  0.404072 0.653343 0  0.395978 0.628269 0  0.387884 0.59132 0  0.389233 0.576804 0  0.397327 0.557009 0  0.410817 0.547772 0  0.424307 0.546452 0  0.437797 0.55305 0  0.44589 0.5662469999999999 0  0.441843 0.582082 0  0.439145 0.5979179999999999 0  0.449937 0.609795 0  0.468823 0.603196 0  0.479615 0.59 0  0.489058 0.570205 0  0.494454 0.546452 0  0.505246 0.522699 0  0.522783 0.509502 0  0.55246 0.494986 0  0.586185 0.484429 0  0.615863 0.48047 0  0.64554 0.473872 0  0.6671240000000001 0.461995 0  0.683312 0.451438 0  0.696802 0.435603 0  0.703547 0.417128 0  0.7116400000000001 0.393374 0  0.7183850000000001 0.37226 0  0.7251300000000001 0.364342 0  0.739969 0.353785 0  0.7453650000000001 0.344548 0  0.7453650000000001 0.327393 0  0.737271 0.318155 0  0.7183850000000001 0.316835 0  0.7008490000000001 0.319475 0  0.677916 0.318155 0  0.650936 0.316835 0  0.610467 0.318155 0  0.57944 0.324753 0  0.559205 0.328712 0  0.5389699999999999 0.326073 0  1 1 0  1 0 0  0 0 0  0 1 0  0.532238 0.32476 0  0.528748 0.323052 0  0.52421 0.320833 0  0.518311 0.317947 0  0.503447 0.310783 0  0.494093 0.306347 0  0.481933 0.30058 0  0.452151 0.28749 0  0.392327 0.273691 0  0.379141 0.271971 0  0.360474 0.283066 0  0.369797 0.291752 0  0.391424 0.31238 0  0.399335 0.32012 0  0.40958 0.341964 0  0.393939 0.36039 0  0.386028 0.36383 0  0.364248 0.374254 0  0.349304 0.381994 0  0.315801 0.409841 0  0.292986 0.551616 0  0.350934 0.657818 0  0.360127 0.737055 0  0.360566 0.748664 0  0.385245 0.753692 0  0.396447 0.732578 0  0.466301 0.703661 0  0.459439 0.672908 0  0.418442 0.666195 0  0.400553 0.642441 0  0.39255 0.612619 0  0.389913 0.60058 0  0.392752 0.568197 0  0.444131 0.573132 0  0.458149 0.606926 0  0.5005540000000001 0.533026 0  0.571522 0.489019 0  0.632637 0.476741 0  0.689177 0.444553 0  0.708121 0.403702 0  0.715453 0.38144 0  0.732406 0.359166 0  0.7453650000000001 0.337089 0  0.72906 0.317581 0  0.629879 0.317522 0  0.59293 0.321884 0  0.568003 0.326991 0  0.55202 0.327775 0  0.546493 0.327054 0  0.542241 0.326499 0  1 0.9 0  1 0.8 0  1 0.7 0  1 0.6 0  1 0.5 0  1 0.4 0  1 0.3 0  1 0.2 0  1 0.1 0  0.9 0 0  0.8 0 0  0.7 0 0  0.6 0 0  0.5 0 0  0.4 0 0  0.3 0 0  0.2 0 0  0.1 0 0  0.1 1 0  0.2 1 0  0.3 1 0  0.4 1 0  0.5 1 0  0.6 1 0  0.7 1 0  0.8 1 0  0.9 1 0  0 0.1 0  0 0.2 0  0 0.3 0  0 0.4 0  0 0.5 0  0 0.6 0  0 0.7 0  0 0.8 0  0 0.9 0  0.535686 0.5031910000000001 0  0.753987 0.733359 0  0.167145 0.741436 0  0.173378 0.257204 0  0.733497 0.159862 0  0.554096 0.15788 0  0.849187 0.479053 0  0.488793 0.838452 0  0.138507 0.5592 0  0.30686 0.154944 0  0.348904 0.890523 0  0.058006 0.065099 0  0.06984899999999999 0.937917 0  0.93633 0.939704 0  0.934625 0.053613 0  0.343397 0.333452 0  0.473272 0.639943 0  0.433266 0.638072 0  0.415174 0.58269 0  0.533435 0.545042 0  0.390848 0.340652 0  0.53655 0.320242 0  0.127966 0.393775 0  0.83861 0.850455 0  0.635242 0.8551299999999999 0  0.852158 0.633441 0  0.653427 0.626848 0  0.861226 0.24292 0  0.166128 0.12976 0  0.216875 0.8698709999999999 0  0.458305 0.11179 0  0.84446 0.101633 0  0.202024 0.642528 0  0.644825 0.115855 0  0.671342 0.218358 0  0.251354 0.286186 0  0.262388 0.75153 0  0.063044 0.751571 0  0.068189 0.242962 0  0.435781 0.9053949999999999 0  0.934144 0.451133 0  0.568393 0.237622 0  0.814984 0.395506 0  0.752951 0.517227 0  0.456254 0.780699 0  0.073352 0.531116 0  0.337731 0.206071 0  0.363213 0.960371 0  0.330742 0.363592 0  0.516613 0.55705 0  0.369057 0.332992 0  0.500926 0.617309 0  0.498004 0.665534 0  0.412142 0.61178 0  0.454233 0.6366039999999999 0  0.422782 0.567496 0  0.541193 0.5214800000000001 0  0.439761 0.65557 0  0.5163 0.533672 0  0.414775 0.64562 0  0.40073 0.576135 0  0.430362 0.5880339999999999 0  0.385432 0.351492 0  0.400298 0.335397 0  0.398325 0.348194 0  0.528702 0.314885 0  0.540814 0.322334 0  0.534477 0.322953 0  0.619095 0.743583 0  0.885162 0.737972 0  0.08076 0.668849 0  0.90734 0.36634 0  0.09468699999999999 0.868937 0  0.759838 0.912152 0  0.901518 0.540898 0  0.747285 0.607479 0  0.229182 0.071641 0  0.06915399999999999 0.450091 0  0.244775 0.203309 0  0.076534 0.331755 0  0.897847 0.167826 0  0.578909 0.911415 0  0.07713299999999999 0.146341 0  0.477215 0.203448 0  0.922631 0.869341 0  0.517415 0.074785 0  0.297026 0.827793 0  0.7832710000000001 0.246505 0  0.74519 0.061079 0  0.36033 0.069068 0  0.210313 0.475228 0  0.859426 0.928758 0  0.5745479999999999 0.609182 0  0.243069 0.383398 0  0.283099 0.934598 0  0.417416 0.843141 0  0.643942 0.553164 0  0.112687 0.079336 0  0.281357 0.658386 0  0.765043 0.436177 0  0.611361 0.198486 0  0.234496 0.58911 0  0.206479 0.702638 0  0.679608 0.155818 0  0.62682 0.259978 0  0.690538 0.264164 0  0.448938 0.956308 0  0.808154 0.328403 0  0.379583 0.91913 0  0.308083 0.297769 0  0.312358 0.730249 0  0.563101 0.278576 0  0.435597 0.746198 0  0.385475 0.225229 0  0.572248 0.518034 0  0.357864 0.35422 0  0.497647 0.641694 0  0.458101 0.655768 0  0.360474 0.310727 0  0.467038 0.620139 0  0.47798 0.659909 0  0.41102 0.628072 0  0.48324 0.609015 0  0.427544 0.617941 0  0.388633 0.328253 0  0.405336 0.599404 0  0.408351 0.565178 0  0.42395 0.600985 0  0.431562 0.576523 0  0.424905 0.6551979999999999 0  0.398064 0.58782 0  0.427739 0.557934 0  0.5192909999999999 0.303443 0  0.53142 0.320293 0  0.5449000000000001 0.323642 0  0.537166 0.323513 0  0.153974 0.920841 0  0.9181859999999999 0.67343 0  0.759946 0.820588 0  0.5375259999999999 0.783091 0  0.816532 0.545843 0  0.813991 0.178083 0  0.836774 0.702023 0  0.149815 0.318856 0  0.662287 0.923338 0  0.680146 0.791192 0  0.708961 0.663172 0  0.9372779999999999 0.287318 0  0.574622 0.6881660000000001 0  0.5894740000000001 0.076262 0  0.502822 0.926683 0  0.222269 0.811068 0  0.380457 0.164786 0  0.15321 0.684154 0  0.458063 0.051413 0  0.161702 0.056026 0  0.199351 0.198818 0  0.298946 0.09553200000000001 0  0.902465 0.795949 0  0.121139 0.791477 0  0.906269 0.112287 0  0.056109 0.822332 0  0.512172 0.13237 0  0.940964 0.741805 0  0.888887 0.408777 0  0.354543 0.825964 0  0.808736 0.068638 0  0.068507 0.394071 0  0.719105 0.563843 0  0.247287 0.149664 0  0.293062 0.237128 0  0.240524 0.434997 0  0.141255 0.623289 0  0.945202 0.160621 0  0.502914 0.247629 0  0.144669 0.480811 0  0.665025 0.060817 0  0.728047 0.224344 0  0.861995 0.313312 0  0.200068 0.534235 0  0.253262 0.965623 0  0.893804 0.49307 0  0.604391 0.572456 0  0.947088 0.345347 0  0.439372 0.227307 0  0.629847 0.159823 0  0.273405 0.880181 0  0.302744 0.776823 0  0.781502 0.295365 0  0.275342 0.349602 0  0.7283849999999999 0.472798 0  0.229136 0.246478 0  0.807794 0.480346 0  0.709476 0.112786 0  0.275506 0.694991 0  0.771674 0.394419 0  0.449715 0.861802 0  0.419159 0.799696 0  0.674851 0.503139 0  0.280443 0.61016 0  0.572443 0.192538 0  0.393113 0.87525 0  0.405555 0.948428 0  0.330942 0.934103 0  0.540509 0.597101 0  0.312763 0.6689310000000001 0  0.254368 0.540179 0  0.595265 0.25915 0  0.606679 0.234099 0  0.657131 0.279138 0  0.722458 0.279478 0  0.333 0.308056 0  0.351529 0.246142 0  0.455714 0.7257940000000001 0  0.585239 0.295143 0  0.340062 0.72492 0  0.545593 0.293773 0  0.555449 0.545426 0  0.414311 0.737314 0  0.590854 0.502323 0  0.350507 0.368444 0  0.484423 0.625665 0  0.483899 0.674542 0  0.378137 0.317274 0  0.446416 0.646404 0  0.373532 0.347654 0  0.446876 0.619769 0  0.466106 0.666068 0  0.437545 0.609254 0  0.434988 0.565726 0  0.41462 0.656829 0  0.418803 0.556961 0  0.398425 0.327446 0  0.517803 0.310421 0  0.549516 0.322918 0  0.57701 0.842889 0  0.8291269999999999 0.773906 0  0.643235 0.684732 0  0.134281 0.207734 0  0.865997 0.055966 0  0.680959 0.723345 0  0.165229 0.8415550000000001 0  0.54558 0.959672 0  0.783726 0.656439 0  0.913315 0.595533 0  0.699439 0.860667 0  0.785839 0.125076 0  0.551673 0.037713 0  0.9200970000000001 0.223214 0  0.206406 0.299726 0  0.087064 0.596401 0  0.935644 0.394252 0  0.964557 0.252582 0  0.230124 0.928346 0  0.120579 0.271764 0  0.8572149999999999 0.524082 0  0.7670979999999999 0.5551469999999999 0  0.936094 0.507131 0  0.804064 0.59585 0  0.700565 0.608273 0  0.429773 0.174231 0  0.117746 0.727333 0  0.5389620000000001 0.730231 0  0.862761 0.359173 0  0.821444 0.284046 0  0.193552 0.35818 0  0.234923 0.505555 0  0.193209 0.421217 0  0.220144 0.755896 0  0.594015 0.131642 0  0.283813 0.195855 0  0.517519 0.213961 0  0.553509 0.639116 0  0.280391 0.378018 0  0.852183 0.436817 0  0.746983 0.197173 0  0.821806 0.221318 0  0.449853 0.828453 0  0.883758 0.453926 0  0.183484 0.589542 0  0.348384 0.129314 0  0.255254 0.838525 0  0.504849 0.798516 0  0.320344 0.863432 0  0.611669 0.525425 0  0.265864 0.804962 0  0.72056 0.521442 0  0.613372 0.6101220000000001 0  0.481262 0.881068 0  0.655778 0.191988 0  0.701921 0.196918 0  0.5658260000000001 0.5731810000000001 0  0.46914 0.240927 0  0.343219 0.173284 0  0.888786 0.278502 0  0.244113 0.6750930000000001 0  0.739546 0.417914 0  0.784023 0.355942 0  0.326805 0.265549 0  0.248616 0.6
[...]
<PointData  Vectors="f_21"> 
<DataArray  type="Float64"  Name="f_21"  NumberOfComponents="3" format="ascii">1.4404983750861731e+00 6.3785073536555181e-01 0.0000000000000000e+00  1.3830693197553918e+00 6.5408806332003333e-01 0.0000000000000000e+00  1.2048010942214527e+00 6.6349090209812067e-01 0.0000000000000000e+00  1.0517714555946496e+00 6.4341596931875422e-01 0.0000000000000000e+00  9.0820308396436755e-01 6.0048731763535301e-01 0.0000000000000000e+00  6.7797653640454347e-01 5.1355791722592714e-01 0.0000000000000000e+00  5.4168911414522991e-01 4.3145929071436573e-01 0.0000000000000000e+00  4.0152343513912142e-01 4.8608142326418247e-01 0.0000000000000000e+00  3.2737558420957152e-01 5.5211245397663411e-01 0.0000000000000000e+00  2.9817136450238557e-01 5.6920825649954054e-01 0.0000000000000000e+00  2.5110376918430177e-01 5.6078304517546973e-01 0.0000000000000000e+00  2.2486141113831923e-01 5.3467579329649040e-01 0.0000000000000000e+00  1.8734585609613827e-01 4.5443785897902833e-01 0.0000000000000000e+00  1.1530020118196317e-01 2.8099021399378321e-01 0.0000000000000000e+00  4.0354832130265451e-02 1.3062591613898519e-01 0.0000000000000000e+00  4.8638846223505268e-03 1.0711057331204085e-02 0.0000000000000000e+00  6.9146559719195496e-03 -9.9948289902019774e-02 0.0000000000000000e+00  3.5407930103642016e-02 -2.2191372188308287e-01 0.0000000000000000e+00  8.0566909505227768e-02 -3.3330370874696030e-01 0.0000000000000000e+00  1.5203907023569554e-01 -4.5152974802507800e-01 0.0000000000000000e+00  2.8016181860914624e-01 -5.9385798386433397e-01 0.0000000000000000e+00  3.8557523112349662e-01 -6.4948052475111251e-01 0.0000000000000000e+00  4.8740892432842048e-01 -6.3811071601103531e-01 0.0000000000000000e+00  7.9997333919878300e-01 -7.1376176303074701e-01 0.0000000000000000e+00  1.0571365675565472e+00 -8.0468101148572557e-01 0.0000000000000000e+00  1.2661268371828889e+00 -8.3864174555491866e-01 0.0000000000000000e+00  1.5816032097952162e+00 -8.4392865104347803e-01 0.0000000000000000e+00  1.7347204469382569e+00 -7.8731895911545191e-01 0.0000000000000000e+00  1.8000055357364289e+00 -7.2465857798265254e-01 0.0000000000000000e+00  1.8352869723875176e+00 -6.8663389945617725e-01 0.0000000000000000e+00  1.9709723907484282e+00 -7.4057637144388822e-01 0.0000000000000000e+00  2.1763189591272174e+00 -8.0915860067067402e-01 0.0000000000000000e+00  2.2811660114486307e+00 -8.8914354811017460e-01 0.0000000000000000e+00  2.3178788294525110e+00 -1.0291648989976199e+00 0.0000000000000000e+00  2.3105349375461310e+00 -1.1622371224969210e+00 0.0000000000000000e+00  2.3451988577522176e+00 -1.2891028555961035e+00 0.0000000000000000e+00  2.4189757586420941e+00 -1.3384499625194035e+00 0.0000000000000000e+00  2.5971885780093693e+00 -1.4060016484988267e+00 0.0000000000000000e+00  2.8832262160754083e+00 -1.4821146584193796e+00 0.0000000000000000e+00  2.9999655669709346e+00 -1.4733836077780009e+00 0.0000000000000000e+00  3.1597793325601895e+00 -1.4099266700829987e+00 0.0000000000000000e+00  3.2343817075818064e+00 -1.3020759709929970e+00 0.0000000000000000e+00  3.2452217890634274e+00 -1.1939403997962765e+00 0.0000000000000000e+00  3.1923812780676952e+00 -1.0854042511801221e+00 0.0000000000000000e+00  3.0856579547836533e+00 -1.0197142152181156e+00 0.0000000000000000e+00  2.9560630795777376e+00 -1.0528200650025519e+00 0.0000000000000000e+00  2.8230649023781877e+00 -1.0785975160998862e+00 0.0000000000000000e+00  2.7127981196613327e+00 -1.0031388873250773e+00 0.0000000000000000e+00  2.7217544322706870e+00 -8.7697369572663830e-01 0.0000000000000000e+00  2.7677080576946782e+00 -8.0887400622327088e-01 0.0000000000000000e+00  2.8388818687314896e+00 -7.5257892977991236e-01 0.0000000000000000e+00  2.9251266598623298e+00 -7.2201328727401781e-01 0.0000000000000000e+00  3.0131018820857602e+00 -6.7572240592582034e-01 0.0000000000000000e+00  3.0616619425827398e+00 -6.0426488674410694e-01 0.0000000000000000e+00  3.1108042194515719e+00 -4.8157575135104513e-01 0.0000000000000000e+00  3.1392065828826108e+00 -3.4105305397387781e-01 0.0000000000000000e+00  3.1349650300774550e+00 -2.1342676703032423e-01 0.0000000000000000e+00  3.1204997441666573e+00 -7.4446384733844392e-02 0.0000000000000000e+00  3.1085386719772101e+00 3.0916881976548752e-02 0.0000000000000000e+00  3.0836794704262189e+00 1.2454725128307763e-01 0.0000000000000000e+00  3.0408367730702639e+00 2.1882993553134242e-01 0.0000000000000000e+00  2.9771902524820826e+00 2.9024713181030265e-01 0.0000000000000000e+00  2.8905195714022138e+00 3.5289638248023159e-01 0.0000000000000000e+00  2.8100229383913504e+00 3.8030657100127130e-01 0.0000000000000000e+00  2.7848231355073918e+00 3.7941295590804552e-01 0.0000000000000000e+00  2.7273657934260895e+00 4.0686579151378194e-01 0.0000000000000000e+00  2.6455732423861029e+00 4.4017401996998090e-01 0.0000000000000000e+00  2.4436891461048007e+00 4.9870358715734425e-01 0.0000000000000000e+00  2.2741324464671240e+00 5.4673941633484846e-01 0.0000000000000000e+00  2.1098459787188255e+00 5.7636439360693292e-01 0.0000000000000000e+00  2.0195886511620067e+00 5.9291091241750937e-01 0.0000000000000000e+00  1.9187639415801081e+00 6.2502843311851042e-01 0.0000000000000000e+00  1.7913894612794348e+00 6.5338500665337651e-01 0.0000000000000000e+00  1.6138632920006097e+00 6.6471899971792714e-01 0.0000000000000000e+00  1.5072683298782128e+00 6.4646020381301161e-01 0.0000000000000000e+00  1.4702640800460449e+00 6.3558551780613004e-01 0.0000000000000000e+00  1.4441078085047139e+00 6.3670126885114120e-01 0.0000000000000000e+00  1.7389476711557796e+00 6.3263872879833150e-01 0.0000000000000000e+00  1.3872172112505965e+00 -2.5360525657442723e-01 0.0000000000000000e+00  0.0000000000000000e+00 0.0000000000000000e+00 0.0000000000000000e+00  0.0000000000000000e+00 0.0000000000000000e+00 0.0000000000000000e+00  1.4371275519321522e+00 6.3979344309578412e-01 0.0000000000000000e+00  1.4307624978097078e+00 6.4233115861908285e-01 0.0000000000000000e+00  1.4206894847865770e+00 6.4553346723904603e-01 0.0000000000000000e+00  1.4056795822524113e+00 6.4954198943034158e-01 0.0000000000000000e+00  1.3596992442396205e+00 6.5742044034381630e-01 0.0000000000000000e+00  1.3261475720959390e+00 6.6124339340113658e-01 0.0000000000000000e+00  1.2780648768683689e+00 6.6364967088813753e-01 0.0000000000000000e+00  1.1371965264519825e+00 6.5728025081151098e-01 0.0000000000000000e+00  8.2042781868556702e-01 5.6506957466882912e-01 0.0000000000000000e+00  7.4908891051399518e-01 5.3796052677451445e-01 0.0000000000000000e+00  4.8302076538473343e-01 4.4633520881028604e-01 0.0000000000000000e+00  4.3995649231398604e-01 4.6229578459885923e-01 0.0000000000000000e+00  3.6953588236946128e-01 5.1137271711041821e-01 0.0000000000000000e+00  3.4571507720005251e-01 5.3369837107827589e-01 0.0000000000000000e+00  2.7676956618454129e-01 5.6537004163672622e-01 0.0000000000000000e+00  2.1580069145959174e-01 5.1494841119894053e-01 0.0000000000000000e+00  2.0357544557716789e-01 4.8909074332411395e-01 0.0000000000000000e+00  1.6662845607794760e-01 4.1370163147633837e-01 0.0000000000000000e+00  1.4176824047239658e-01 3.5818717716277315e-01 0.0000000000000000e+00  7.7502304884275286e-02 2.1719097370863258e-01 0.0000000000000000e+00  2.0188608972397534e-02 -1.6589108320814369e-01 0.0000000000000000e+00  2.1794643627089624e-01 -5.3226917302876531e-01 0.0000000000000000e+00  5.8361320531723748e-01 -6.7450812394963044e-01 0.0000000000000000e+00  6.8430567821926624e-01 -7.0246441078618072e-01 0.0000000000000000e+00  1.4482730750738360e+00 -8.5801733542658709e-01 0.0000000000000000e+00  1.6589150383121678e+00 -8.1846394191796745e-01 0.0000000000000000e+00  1.8781143362013464e+00 -6.8845888804516508e-01 0.0000000000000000e+00  2.2984726430201627e+00 -9.4870605669061203e-01 0.0000000000000000e+00  2.3296092304270801e+00 -1.2338672762194858e+00 0.0000000000000000e+00  2.4951772588020833e+00 -1.3664782521460810e+00 0.0000000000000000e+00  2.7144988542970019e+00 -1.4385509838902371e+00 0.0000000000000000e+00  2.8090493210461847e+00 -1.4637327328207248e+00 0.0000000000000000e+00  3.0694586853133328e+00 -1.4460269246117583e+00 0.0000000000000000e+00  3.0295506192827522e+00 -1.0339601148338047e+00 0.0000000000000000e+00  2.7169658520268669e+00 -9.4717463831833670e-01 0.0000000000000000e+00  2.9744182598148363e+00 -6.9536493390283027e-01 0.0000000000000000e+00  3.1272693020025248e+00 -4.0254121459110032e-01 0.0000000000000000e+00  3.1303521620018842e+00 -1.3706387407583651e-01 0.0000000000000000e+00  3.0670653356269373e+00 1.6721390780750986e-01 0.0000000000000000e+00  2.9294053091380721e+00 3.2913646261996116e-01 0.0000000000000000e+00  2.8436490058830723e+00 3.7322582066488402e-01 0.0000000000000000e+00  2.7613205831136436e+00 3.8676203516020363e-01 0.0000000000000000e+00  2.5655378215645559e+00 4.8029211910779585e-01 0.0000000000000000e+00  2.1934287203364566e+00 5.5953610415182820e-01 0.0000000000000000e+00  1.6959083122865544e+00 6.6181289402038512e-01 0.0000000000000000e+00  1.5457059650513683e+00 6.5547476913250624e-01 0.0000000000000000e+00  1.4830705810462177e+00 6.3945718814475960e-01 0.0000000000000000e+00  1.4622699606567857e+00 6.3504441279776036e-01 0.0000000000000000e+00  1.4546093558970061e+00 6.3555229933843638e-01 0.0000000000000000e+00  1.4486171800969172e+00 6.3610155630611442e-01 0.0000000000000000e+00  2.1073747715170650e+00 6.5237531481735733e-01 0.0000000000000000e+00  2.4880637468551869e+00 6.3194480349962801e-01 0.0000000000000000e+00  2.8290878045832661e+00 5.4066542746127388e-01 0.0000000000000000e+00  3.0802254365645121e+00 3.7967971633733155e-01 0.0000000000000000e+00  3.1487163419243660e+00 1.3406233395168260e-01 0.0000000000000000e+00  2.9803214509152647e+00 -1.0761116309342783e-01 0.0000000000000000e+00  2.6136354565503419e+00 -2.6161473452315481e-01 0.0000000000000000e+00  2.1866104719276520e+00 -2.9597173681399691e-01 0.0000000000000000e+00  1.7826804333472552e+00 -2.7874852136112377e-01 0.0000000000000000e+00  1.3139024497345473e+00 1.4945029347856675e-01 0.0000000000000000e+00  1.2819855825845945e+00 5.0603544114008636e-01 0.0000000000000000e+00  1.2722086200278220e+00 7.6211941113894210e-01 0.0000000000000000e+00  1.2575978548253934e+00 8.9346338939501202e-01 0.0000000000000000e+00  1.2116033197108700e+00 8.8241107272228558e-01 0.0000000000000000e+00  1.1062443220595375e+00 7.5898782810052445e-01 0.0000000000000000e+00  9.2084361745202459e-01 5.6609913223784447e-01 0.0000000000000000e+00  6.6096344536882135e-01 3.6935384964058149e-01 0.0000000000000000e+00  3.6034956789403089e-01 2.0628877918476943e-01 0.0000000000000000e+00  4.3197853500057376e-01 -2.4350779231372546e-01 0.0000000000000000e+00  7.8370806820891892e-01 -4.5228520102380498e-01 0.0000000000000000e+00  1.0554009102626274e+00 -6.9056131670441723e-01 0.0000000000000000e+00  1.1998869857279870e+00 -8.4622545119749981e-01 0.0000000000000000e+00  1.2784039650944019e+00 -8.0138934146268148e-01 0.0000000000000000e+00  1.3700719867848501e+00 -6.0659667785729576e-01 0.0000000000000000e+00  1.4789044814951300e+00 -3.4477673642801870e-01 0.0000000000000000e+00  1.5773167254354084e+00 -4.9838119030215455e-02 0.0000000000000000e+00  1.6572677897091967e+00 2.7652620143395423e-01 0.0000000000000000e+00  0.0000000000000000e+00 0.0000000000000000e+00 0.0000000000000000e+00  0.0000000000000000e+00 0.0000000000000000e+00 0.0000000000000000e+00  0.0000000000000000e+00 0.0000000000000000e+00 0.0000000000000000e+00  0.0000000000000000e+00 0.0000000000000000e+00 0.0000000000000000e+00  0.0000000000000000e+00 0.0000000000000000e+00 0.0000000000000000e+00  0.0000000000000000e+00 0.0000000000000000e+00 0.0000000000000000e+00  0.0000000000000000e+00 0.0000000000000000e+00 0.0000000000000000e+00  0.0000000000000000e+00 0.0000000000000000e+00 0.0000000000000000e+00  0.0000000000000000e+00 0.0000000000000000e+00 0.0000000000000000e+00  3.0835279206411057e+00 -5.5091773717202630e-01 0.0000000000000000e+00  2.4431139132544946e+00 -1.0057485779722678e-02 0.0000000000000000e+00  2.6675485785306496e-01 -8.8804814506719426e-02 0.0000000000000000e+00  2.4803058356820290e-01 6.9616910665187770e-02 0.0000000000000000e+00  1.6629054500957339e+00 6.4271375132704056e-01 0.0000000000000000e+00  1.3092719910558144e+00 8.2376369327598209e-01 0.0000000000000000e+00  3.0908098264001298e+00 1.9857400118632407e-01 0.0000000000000000e+00  1.4711639953560498e+00 -7.3494510462092877e-01 0.0000000000000000e+00  1.3169642866031903e-02 -1.3157994271002796e-02 0.0000000000000000e+00  7.2443258343788075e-01 4.4635294371817175e-01 0.0000000000000000e+00  1.0612257025659100e+00 -7.2944426737223933e-01 0.0000000000000000e+00  1.5429144081321980e-01 7.2981141226302518e-02 0.0000000000000000e+00  2.2770147031938395e-01 -1.1019896742874061e-01 0.0000000000000000e+00  1.9036305109111045e+00 4.1751324321034622e-01 0.0000000000000000e+00  1.5437398204326136e+00 -2.0599851761067115e-03 0.0000000000000000e+00  2.8961470520651117e-01 3.5498263406281799e-01 0.0000000000000000e+00  2.5131961601852035e+00 -8.5519873891293885e-01 0.0000000000000000e+00  2.5244558328515576e+00 -1.1244416419332157e+00 0.0000000000000000e+00  2.9508679969248379e+00 -1.2671370615156341e+00 0.0000000000000000e+00  2.9283707949146081e+00 -5.6112677889956497e-01 0.0000000000000000e+00  2.8041530330704739e-01 5.0609339772303297e-01 0.0000000000000000e+00  1.4358244252492554e+00 6.3954081027971432e-01 0.0000000000000000e+00  4.2585340879420008e-02 -2.2601972243880091e-02 0.0000000000000000e+00  2.1379652626353987e+00 1.2452046405149551e-01 0.0000000000000000e+00  1.7775649546467114e+00 -4.2993306241821622e-01 0.0000000000000000e+00  2.9123107055370681e+00 2.2116504315777946e-01 0.0000000000000000e+00  2.6750722256336643e+00 -1.4667376671346871e-01 0.0000000000000000e+00  2.2082429160758155e+00 1.9016637031113162e-01 0.0000000000000000e+00  3.8960898415851430e-01 1.7995290558746665e-01 0.0000000000000000e+00  6.2973027906147883e-01 -3.4242961789565241e-01 0.0000000000000000e+00  1.0991502275103759e+00 7.8974977125143708e-01 0.0000000000000000e+00  1.6375309834930301e+00 3.3040963490133063e-01 0.0000000000000000e+00  1.1951306333976880e-01 -8.1306827656240740e-02 0.0000000000000000e+00  1.4297147669215431e+00 8.1708905057386960e-01 0.0000000000000000e+00  1.6837754449396967e+00 7.3074431399419115e-01 0.0000000000000000e+00  3.2883381360742137e-01 1.5516000394984911e-01 0.0000000000000000e+00  4.9644608620445302e-01 -2.8261530102017357e-01 0.0000000000000000e+00  9.4540811557814672e-02 1.2359799024228592e-03 0.0000000000000000e+00  9.2659603074548930e-02 -1.1144054459741324e-03 0.0000000000000000e+00  1.2569966634702543e+00 -8.1842068979612148e-01 0.0000000000000000e+00  3.0796066194375746e+00 1.0293420694760316e-01 0.0000000000000000e+00  1.4309829408037904e+00 7.4260930064467034e-01 0.0000000000000000e+00  2.9121996832739399e+00 2.1907181883927229e-01 0.0000000000000000e+00  3.0460654033822578e+00 1.8002350086422697e-01 0.0000000000000000e+00  1.5350718408447934e+00 -7.3150333191831485e-01 0.0000000000000000e+00  6.1997238535440053e-03 3.9263298841808687e-05 0.0000000000000000e+00  7.4089245582620789e-01 4.7531229481534892e-01 0.0000000000000000e+00  1.1200820640986753e+00 -7.8404196662952741e-01 0.0000000000000000e+00  1.9699166408915714e-01 2.9590042962683372e-01 0.0000000000000000e+00  2.8861907168432550e+00 -6.3323933651843933e-01 0.0000000000000000e+00  3.0113472448347756e-01 4.3972149149124790e-01 0.0000000000000000e+00  2.6374068910526893e+00 -7.0416922796682913e-01 0.0000000000000000e+00  2.3526828876931365e+00 -7.0471013980096142e-01 0.0000000000000000e+00  2.7182203719280364e+00 -1.2868122246437397e+00 0.0000000000000000e+00  2.5338336242665291e+00 -9.7609312606172727e-01 0.0000000000000000e+00  3.0750957892972246e+00 -1.2064460855283343e+00 0.0000000000000000e+00  3.0136255139016113e+00 -5.2794477613757784e-01 0.0000000000000000e+00  2.4070783913685410e+00 -1.0794626558355658e+00 0.0000000000000000e+00  2.9715753103527049e+00 -6.3196801700594130e-01 0.0000000000000000e+00  2.4726779837985768e+00 -1.2612493820737936e+00 0.0000000000000000e+00  3.0049162866065937e+00 -1.3817779884983472e+00 0.0000000000000000e+00  2.9062307235166180e+00 -1.1469966670340810e+00 0.0000000000000000e+00  2.4472056808853598e-01 4.8774688283216872e-01 0.0000000000000000e+00  2.9786891881909394e-01 5.3593673514248730e-01 0.0000000000000000e+00  2.5629696805376556e-01 5.2928407169313807e-01 0.0000000000000000e+00  1.4151656623613493e+00 6.4511515256110796e-01 0.0000000000000000e+00  1.4439457098667479e+00 6.3800219157365423e-01 0.0000000000000000e+00  1.4365559145473996e+00 6.3894649160545036e-01 0.0000000000000000e+00  2.1315868091296966e+00 -3.5324816215486748e-01 0.0000000000000000e+00  2.6156691965512113e+00 2.7703974861165237e-01 0.0000000000000000e+00  6.4946285767845516e-02 1.2192192315909036e-02 0.0000000000000000e+00  2.8287682437866870e+00 6.0284080139101345e-02 0.0000000000000000e+00  2.4972131216174262e-01 -9.3590268033663257e-02 0.0000000000000000e+00  1.8130329687580400e+00 -1.3519224613573808e-01 0.0000000000000000e+00  3.1116750004429425e+00 2.1916420125651448e-01 0.0000000000000000e+00  2.8583222829623245e+00 8.8338702944560657e-02 0.0000000000000000e+00  6.2971891485910347e-01 3.5685060446696770e-01 0.0000000000000000e+00  7.9084327005288831e-03 -1.5993418293506173e-02 0.0000000000000000e+00  4.8955720274425096e-01 2.4126257906366685e-01 0.0000000000000000e+00  5.5100126026515296e-02 -2.1730097850673192e-02 0.0000000000000000e+00  1.9480992909415757e+00 1.0645623743241166e-01 0.0000000000000000e+00  1.5299632618880334e+00 -6.1124691771932893e-01 0.0000000000000000e+00  1.5760748664136873e-01 4.7696784892452951e-02 0.0000000000000000e+00  1.1329544532653542e+00 7.4769971061005158e-01 0.0000000000000000e+00  2.1584336829865269e+00 3.7896788194404568e-01 0.0000000000000000e+00  1.2060119577828463e+00 8.6449050905400138e-01 0.0000000000000000e+00  8.4719415339301807e-01 -5.1523904826930311e-01 0.0000000000000000e+00  2.0492217770588552e+00 4.3608349083169284e-01 0.0000000000000000e+00  1.4270345284813435e+00 6.5046759894131700e-01 0.0000000000000000e+00  9.4348994733930003e-01 6.4333886169079613e-01 0.0000000000000000e+00  -6.6598792041639866e-03 -2.2062161422833074e-02 0.0000000000000000e+00  1.8724585676909697e+00 1.5994526859544417e-01 0.0000000000000000e+00  2.6776583737643609e+00 -3.9430596705035798e-01 0.0000000000000000e+00  1.0809158330524088e-01 6.1058837381254803e-02 0.0000000000000000e+00  9.1339089551617392e-01 -5.9528365934212224e-01 0.0000000000000000e+00  1.2517970940929604e+00 -8.0736581074304414e-01 0.0000000000000000e+00  2.9038965048635381e+00 -1.1771286962340395e-01 0.0000000000000000e+00  2.9815963656970945e-01 1.4671432602680415e-01 0.0000000000000000e+00  1.9950020521435943e-01 -2.5827563921122515e-01 0.0000000000000000e+00  3.0285397842294892e+00 2.5280620285926841e-01 0.0000000000000000e+00  1.4970800514496951e+00 7.8634587689241353e-01 0.0000000000000000e+00  4.3875902329146711e-02 -1.0394697878617508e-01 0.0000000000000000e+00  2.4908256721609143e-01 -1.2000596798024436e-01 0.0000000000000000e+00  1.5614023826932846e+00 7.5292969199937210e-01 0.0000000000000000e+00  1.6391329611589045e+00 7.2731526937266910e-01 0.0000000000000000e+00  1.8504525307677004e+00 6.7551550305375929e-01 0.0000000000000000e+00  1.2560797426638592e+00 -8.2786540398542730e-01 0.0000000000000000e+00  2.5631857500642048e+00 2.5100180714219839e-01 0.0000000000000000e+00  1.1370793019624552e+00 -7.9205369954735994e-01 0.0000000000000000e+00  3.7913703408562999e-01 2.6844444347403790e-01 0.0000000000000000e+00  5.0078597072539521e-01 -4.1376636111547499e-01 0.0000000000000000e+00  1.4609627747857210e+00 6.8782578170318653e-01 0.0000000000000000e+00  1.6377858804286287e+00 -7.1777671796802400e-01 0.0000000000000000e+00  8.5373549657494074e-01 6.0068223553258182e-01 0.0000000000000000e+00  3.0189427447051291e+00 -3.9737823117573007e-01 0.0000000000000000e+00  2.3194839349253085e-01 3