<?xml version="1.0"?>
<VTKFile type="UnstructuredGrid"  version="0.1"  >
<UnstructuredGrid>
<Piece  NumberOfPoints="2868" NumberOfCells="5400">
<Points>
<DataArray  type="Float64"  NumberOfComponents="3"  format="ascii">0.534923 0.326073 0  0.510642 0.314196 0  0.466125 0.293082 0  0.436448 0.281205 0  0.409468 0.275927 0  0.368998 0.270648 0  0.35281 0.275927 0  0.381139 0.302319 0  0.405421 0.326073 0  0.410817 0.33531 0  0.408119 0.349826 0  0.400025 0.357744 0  0.375743 0.368301 0  0.329878 0.392055 0  0.297502 0.432963 0  0.282663 0.476511 0  0.285361 0.524018 0  0.298851 0.572845 0  0.317737 0.6045160000000001 0  0.337972 0.6361869999999999 0  0.360904 0.674457 0  0.368998 0.69953 0  0.359555 0.7219640000000001 0  0.360904 0.757594 0  0.370347 0.766831 0  0.381139 0.762872 0  0.390582 0.741758 0  0.404072 0.720644 0  0.424307 0.707448 0  0.447239 0.702169 0  0.480964 0.704808 0  0.479615 0.6889729999999999 0  0.468823 0.675776 0  0.447239 0.6691780000000001 0  0.428354 0.6691780000000001 0  0.410817 0.6639 0  0.404072 0.653343 0  0.395978 0.628269 0  0.387884 0.59132 0  0.389233 0.576804 0  0.397327 0.557009 0  0.410817 0.547772 0  0.424307 0.546452 0  0.437797 0.55305 0  0.44589 0.5662469999999999 0  0.441843 0.582082 0  0.439145 0.5979179999999999 0  0.449937 0.609795 0  0.468823 0.603196 0  0.479615 0.59 0  0.489058 0.570205 0  0.494454 0.546452 0  0.505246 0.522699 0  0.522783 0.509502 0  0.55246 0.494986 0  0.586185 0.484429 0  0.615863 0.48047 0  0.64554 0.473872 0  0.6671240000000001 0.461995 0  0.683312 0.451438 0  0.696802 0.435603 0  0.703547 0.417128 0  0.7116400000000001 0.393374 0  0.7183850000000001 0.37226 0  0.7251300000000001 0.364342 0  0.739969 0.353785 0  0.7453650000000001 0.344548 0  0.7453650000000001 0.327393 0  0.737271 0.318155 0  0.7183850000000001 0.316835 0  0.7008490000000001 0.319475 0  0.677916 0.318155 0  0.650936 0.316835 0  0.610467 0.318155 0  0.57944 0.324753 0  0.559205 0.328712 0  0.5389699999999999 0.326073 0  1 1 0  1 0 0  0 0 0  0 1 0  0.532238 0.32476 0  0.528748 0.323052 0  0.52421 0.320833 0  0.518311 0.317947 0  0.503447 0.310783 0  0.494093 0.306347 0  0.481933 0.30058 0  0.452151 0.28749 0  0.392327 0.273691 0  0.379141 0.271971 0  0.360474 0.283066 0  0.369797 0.291752 0  0.391424 0.31238 0  0.399335 0.32012 0  0.40958 0.341964 0  0.393939 0.36039 0  0.386028 0.36383 0  0.364248 0.374254 0  0.349304 0.381994 0  0.315801 0.409841 0  0.292986 0.551616 0  0.350934 0.657818 0  0.360127 0.737055 0  0.360566 0.748664 0  0.385245 0.753692 0  0.396447 0.732578 0  0.466301 0.703661 0  0.459439 0.672908 0  0.418442 0.666195 0  0.400553 0.642441 0  0.39255 0.612619 0  0.389913 0.60058 0  0.392752 0.568197 0  0.444131 0.573132 0  0.458149 0.606926 0  0.5005540000000001 0.533026 0  0.571522 0.489019 0  0.632637 0.476741 0  0.689177 0.444553 0  0.708121 0.403702 0  0.715453 0.38144 0  0.732406 0.359166 0  0.7453650000000001 0.337089 0  0.72906 0.317581 0  0.629879 0.317522 0  0.59293 0.321884 0  0.568003 0.326991 0  0.55202 0.327775 0  0.546493 0.327054 0  0.542241 0.326499 0  1 0.9 0  1 0.8 0  1 0.7 0  1 0.6 0  1 0.5 0  1 0.4 0  1 0.3 0  1 0.2 0  1 0.1 0  0.9 0 0  0.8 0 0  0.7 0 0  0.6 0 0  0.5 0 0  0.4 0 0  0.3 0 0  0.2 0 0  0.1 0 0  0.1 1 0  0.2 1 0  0.3 1 0  0.4 1 0  0.5 1 0  0.6 1 0  0.7 1 0  0.8 1 0  0.9 1 0  0 0.1 0  0 0.2 0  0 0.3 0  0 0.4 0  0 0.5 0  0 0.6 0  0 0.7 0  0 0.8 0  0 0.9 0  0.535686 0.5031910000000001 0  0.753987 0.733359 0  0.167145 0.741436 0  0.173378 0.257204 0  0.733497 0.159862 0  0.554096 0.15788 0  0.849187 0.479053 0  0.488793 0.838452 0  0.138507 0.5592 0  0.30686 0.154944 0  0.348904 0.890523 0  0.058006 0.065099 0  0.06984899999999999 0.937917 0  0.93633 0.939704 0  0.934625 0.053613 0  0.343397 0.333452 0  0.473272 0.639943 0  0.433266 0.638072 0  0.415174 0.58269 0  0.533435 0.545042 0  0.390848 0.340652 0  0.53655 0.320242 0  0.127966 0.393775 0  0.83861 0.850455 0  0.635242 0.8551299999999999 0  0.852158 0.633441 0  0.653427 0.626848 0  0.861226 0.24292 0  0.166128 0.12976 0  0.216875 0.8698709999999999 0  0.458305 0.11179 0  0.84446 0.101633 0  0.202024 0.642528 0  0.644825 0.115855 0  0.671342 0.218358 0  0.251354 0.286186 0  0.262388 0.75153 0  0.063044 0.751571 0  0.068189 0.242962 0  0.435781 0.9053949999999999 0  0.934144 0.451133 0  0.568393 0.237622 0  0.814984 0.395506 0  0.752951 0.517227 0  0.456254 0.780699 0  0.073352 0.531116 0  0.337731 0.206071 0  0.363213 0.960371 0  0.330742 0.363592 0  0.516613 0.55705 0  0.369057 0.332992 0  0.500926 0.617309 0  0.498004 0.665534 0  0.412142 0.61178 0  0.454233 0.6366039999999999 0  0.422782 0.567496 0  0.541193 0.5214800000000001 0  0.439761 0.65557 0  0.5163 0.533672 0  0.414775 0.64562 0  0.40073 0.576135 0  0.430362 0.5880339999999999 0  0.385432 0.351492 0  0.400298 0.335397 0  0.398325 0.348194 0  0.528702 0.314885 0  0.540814 0.322334 0  0.534477 0.322953 0  0.619095 0.743583 0  0.885162 0.737972 0  0.08076 0.668849 0  0.90734 0.36634 0  0.09468699999999999 0.868937 0  0.759838 0.912152 0  0.901518 0.540898 0  0.747285 0.607479 0  0.229182 0.071641 0  0.06915399999999999 0.450091 0  0.244775 0.203309 0  0.076534 0.331755 0  0.897847 0.167826 0  0.578909 0.911415 0  0.07713299999999999 0.146341 0  0.477215 0.203448 0  0.922631 0.869341 0  0.517415 0.074785 0  0.297026 0.827793 0  0.7832710000000001 0.246505 0  0.74519 0.061079 0  0.36033 0.069068 0  0.210313 0.475228 0  0.859426 0.928758 0  0.5745479999999999 0.609182 0  0.243069 0.383398 0  0.283099 0.934598 0  0.417416 0.843141 0  0.643942 0.553164 0  0.112687 0.079336 0  0.281357 0.658386 0  0.765043 0.436177 0  0.611361 0.198486 0  0.234496 0.58911 0  0.206479 0.702638 0  0.679608 0.155818 0  0.62682 0.259978 0  0.690538 0.264164 0  0.448938 0.956308 0  0.808154 0.328403 0  0.379583 0.91913 0  0.308083 0.297769 0  0.312358 0.730249 0  0.563101 0.278576 0  0.435597 0.746198 0  0.385475 0.225229 0  0.572248 0.518034 0  0.357864 0.35422 0  0.497647 0.641694 0  0.458101 0.655768 0  0.360474 0.310727 0  0.467038 0.620139 0  0.47798 0.659909 0  0.41102 0.628072 0  0.48324 0.609015 0  0.427544 0.617941 0  0.388633 0.328253 0  0.405336 0.599404 0  0.408351 0.565178 0  0.42395 0.600985 0  0.431562 0.576523 0  0.424905 0.6551979999999999 0  0.398064 0.58782 0  0.427739 0.557934 0  0.5192909999999999 0.303443 0  0.53142 0.320293 0  0.5449000000000001 0.323642 0  0.537166 0.323513 0  0.153974 0.920841 0  0.9181859999999999 0.67343 0  0.759946 0.820588 0  0.5375259999999999 0.783091 0  0.816532 0.545843 0  0.813991 0.178083 0  0.836774 0.702023 0  0.149815 0.318856 0  0.662287 0.923338 0  0.680146 0.791192 0  0.708961 0.663172 0  0.9372779999999999 0.287318 0  0.574622 0.6881660000000001 0  0.5894740000000001 0.076262 0  0.502822 0.926683 0  0.222269 0.811068 0  0.380457 0.164786 0  0.15321 0.684154 0  0.458063 0.051413 0  0.161702 0.056026 0  0.199351 0.198818 0  0.298946 0.09553200000000001 0  0.902465 0.795949 0  0.121139 0.791477 0  0.906269 0.112287 0  0.056109 0.822332 0  0.512172 0.13237 0  0.940964 0.741805 0  0.888887 0.408777 0  0.354543 0.825964 0  0.808736 0.068638 0  0.068507 0.394071 0  0.719105 0.563843 0  0.247287 0.149664 0  0.293062 0.237128 0  0.240524 0.434997 0  0.141255 0.623289 0  0.945202 0.160621 0  0.502914 0.247629 0  0.144669 0.480811 0  0.665025 0.060817 0  0.728047 0.224344 0  0.861995 0.313312 0  0.200068 0.534235 0  0.253262 0.965623 0  0.893804 0.49307 0  0.604391 0.572456 0  0.947088 0.345347 0  0.439372 0.227307 0  0.629847 0.159823 0  0.273405 0.880181 0  0.302744 0.776823 0  0.781502 0.295365 0  0.275342 0.349602 0  0.7283849999999999 0.472798 0  0.229136 0.246478 0  0.807794 0.480346 0  0.709476 0.112786 0  0.275506 0.694991 0  0.771674 0.394419 0  0.449715 0.861802 0  0.419159 0.799696 0  0.674851 0.503139 0  0.280443 0.61016 0  0.572443 0.192538 0  0.393113 0.87525 0  0.405555 0.948428 0  0.330942 0.934103 0  0.540509 0.597101 0  0.312763 0.6689310000000001 0  0.254368 0.540179 0  0.595265 0.25915 0  0.606679 0.234099 0  0.657131 0.279138 0  0.722458 0.279478 0  0.333 0.308056 0  0.351529 0.246142 0  0.455714 0.7257940000000001 0  0.585239 0.295143 0  0.340062 0.72492 0  0.545593 0.293773 0  0.555449 0.545426 0  0.414311 0.737314 0  0.590854 0.502323 0  0.350507 0.368444 0  0.484423 0.625665 0  0.483899 0.674542 0  0.378137 0.317274 0  0.446416 0.646404 0  0.373532 0.347654 0  0.446876 0.619769 0  0.466106 0.666068 0  0.437545 0.609254 0  0.434988 0.565726 0  0.41462 0.656829 0  0.418803 0.556961 0  0.398425 0.327446 0  0.517803 0.310421 0  0.549516 0.322918 0  0.57701 0.842889 0  0.8291269999999999 0.773906 0  0.643235 0.684732 0  0.134281 0.207734 0  0.865997 0.055966 0  0.680959 0.723345 0  0.165229 0.8415550000000001 0  0.54558 0.959672 0  0.783726 0.656439 0  0.913315 0.595533 0  0.699439 0.860667 0  0.785839 0.125076 0  0.551673 0.037713 0  0.9200970000000001 0.223214 0  0.206406 0.299726 0  0.087064 0.596401 0  0.935644 0.394252 0  0.964557 0.252582 0  0.230124 0.928346 0  0.120579 0.271764 0  0.8572149999999999 0.524082 0  0.7670979999999999 0.5551469999999999 0  0.936094 0.507131 0  0.804064 0.59585 0  0.700565 0.608273 0  0.429773 0.174231 0  0.117746 0.727333 0  0.5389620000000001 0.730231 0  0.862761 0.359173 0  0.821444 0.284046 0  0.193552 0.35818 0  0.234923 0.505555 0  0.193209 0.421217 0  0.220144 0.755896 0  0.594015 0.131642 0  0.283813 0.195855 0  0.517519 0.213961 0  0.553509 0.639116 0  0.280391 0.378018 0  0.852183 0.436817 0  0.746983 0.197173 0  0.821806 0.221318 0  0.449853 0.828453 0  0.883758 0.453926 0  0.183484 0.589542 0  0.348384 0.129314 0  0.255254 0.838525 0  0.504849 0.798516 0  0.320344 0.863432 0  0.611669 0.525425 0  0.265864 0.804962 0  0.72056 0.521442 0  0.613372 0.6101220000000001 0  0.481262 0.881068 0  0.655778 0.191988 0  0.701921 0.196918 0  0.5658260000000001 0.5731810000000001 0  0.46914 0.240927 0  0.343219 0.173284 0  0.888786 0.278502 0  0.244113 0.6750930000000001 0  0.739546 0.417914 0  0.784023 0.355942 0  0.326805 0.265549 0  0.248616 0.6
[...]
<PointData  Vectors="f_21"> 
<DataArray  type="Float64"  Name="f_21"  NumberOfComponents="3" format="ascii">1.4331487720105467e+00 3.7521464822115991e-01 0.0000000000000000e+00  1.3766416599124915e+00 4.1035418003591040e-01 0.0000000000000000e+00  1.2046423660584260e+00 4.6330393530598990e-01 0.0000000000000000e+00  1.0538425954820656e+00 4.7958435859895343e-01 0.0000000000000000e+00  9.1183062933127579e-01 4.7389830822607859e-01 0.0000000000000000e+00  6.7420198099079942e-01 4.5143492549375902e-01 0.0000000000000000e+00  5.3518897514098729e-01 4.1448368528365548e-01 0.0000000000000000e+00  3.7071587308997755e-01 5.2791467308524542e-01 0.0000000000000000e+00  2.7917121243680354e-01 6.1491048907375434e-01 0.0000000000000000e+00  2.4414697256456588e-01 6.3539258648118269e-01 0.0000000000000000e+00  1.8862357057003970e-01 6.2510400832525292e-01 0.0000000000000000e+00  1.5795424014410786e-01 5.9379400489920908e-01 0.0000000000000000e+00  1.1786209617126935e-01 4.9600400316173043e-01 0.0000000000000000e+00  5.1085208212140527e-02 2.9591306159812492e-01 0.0000000000000000e+00  -1.8427465519506685e-02 1.3810566374184988e-01 0.0000000000000000e+00  -5.3595696816470695e-02 1.4559041431936289e-02 0.0000000000000000e+00  -5.1009276823809173e-02 -1.0381472993934855e-01 0.0000000000000000e+00  -1.6707866399957878e-02 -2.3251868248633834e-01 0.0000000000000000e+00  3.1592257427648575e-02 -3.4303842485533820e-01 0.0000000000000000e+00  1.0310070940900765e-01 -4.5353397658350464e-01 0.0000000000000000e+00  2.2211917139674831e-01 -5.7845547095046934e-01 0.0000000000000000e+00  3.1495296530028838e-01 -6.2553552605261575e-01 0.0000000000000000e+00  4.0369531320671936e-01 -6.1335169507710241e-01 0.0000000000000000e+00  6.7725499061709182e-01 -6.7382138418616155e-01 0.0000000000000000e+00  9.0602179509851333e-01 -7.4819777026078138e-01 0.0000000000000000e+00  1.0964386601465330e+00 -7.6990047955036789e-01 0.0000000000000000e+00  1.3913466429992587e+00 -7.6661771755877095e-01 0.0000000000000000e+00  1.5434223560433495e+00 -7.0521725715766492e-01 0.0000000000000000e+00  1.6132472048547195e+00 -6.3067161375625802e-01 0.0000000000000000e+00  1.6495430400929052e+00 -5.7214979388792486e-01 0.0000000000000000e+00  1.7554108827220718e+00 -5.6430364690394685e-01 0.0000000000000000e+00  1.9264843625648345e+00 -6.0215145585571572e-01 0.0000000000000000e+00  2.0142195660362843e+00 -6.5223051892505390e-01 0.0000000000000000e+00  2.0467041168221067e+00 -7.4731426542750057e-01 0.0000000000000000e+00  2.0422342216874725e+00 -8.4144305889188054e-01 0.0000000000000000e+00  2.0671039577502008e+00 -9.3308461878784088e-01 0.0000000000000000e+00  2.1207741994984115e+00 -9.6919616293628263e-01 0.0000000000000000e+00  2.2518572570180115e+00 -1.0195512716606530e+00 0.0000000000000000e+00  2.4667983438578585e+00 -1.0783386604611909e+00 0.0000000000000000e+00  2.5558910562350192e+00 -1.0721387317380218e+00 0.0000000000000000e+00  2.6783371334632666e+00 -1.0239807171736455e+00 0.0000000000000000e+00  2.7354896125612003e+00 -9.4162004242031816e-01 0.0000000000000000e+00  2.7437784717140166e+00 -8.5911632083615352e-01 0.0000000000000000e+00  2.7034657658192547e+00 -7.7642890484152649e-01 0.0000000000000000e+00  2.6219638625192223e+00 -7.2642020360174286e-01 0.0000000000000000e+00  2.5225646403679662e+00 -7.5256448236138007e-01 0.0000000000000000e+00  2.4206731565461719e+00 -7.7546601945287241e-01 0.0000000000000000e+00  2.3405350275678471e+00 -7.2526056473921086e-01 0.0000000000000000e+00  2.3540453077276156e+00 -6.3490526295785821e-01 0.0000000000000000e+00  2.3962827352513432e+00 -5.8228056115743643e-01 0.0000000000000000e+00  2.4576287187705059e+00 -5.3665731234194058e-01 0.0000000000000000e+00  2.5291009789391312e+00 -5.1100925535012209e-01 0.0000000000000000e+00  2.6006162541177993e+00 -4.7287648145878441e-01 0.0000000000000000e+00  2.6393877050902717e+00 -4.1509207038763118e-01 0.0000000000000000e+00  2.6773847407289932e+00 -3.1816740418106282e-01 0.0000000000000000e+00  2.6987029155755997e+00 -2.1089473451686941e-01 0.0000000000000000e+00  2.6959790126772427e+00 -1.1659258341917976e-01 0.0000000000000000e+00  2.6878684032501554e+00 -1.8550661910016177e-02 0.0000000000000000e+00  2.6831174434459091e+00 5.1394909667499912e-02 0.0000000000000000e+00  2.6703230391839905e+00 1.1058043528563666e-01 0.0000000000000000e+00  2.6468709422337975e+00 1.6870483386519117e-01 0.0000000000000000e+00  2.6078737294019447e+00 2.1282366377819428e-01 0.0000000000000000e+00  2.5486116012631448e+00 2.5170079018712638e-01 0.0000000000000000e+00  2.4874601043520728e+00 2.6743170937747102e-01 0.0000000000000000e+00  2.4659074430041636e+00 2.6313134046041065e-01 0.0000000000000000e+00  2.4190950067635999e+00 2.6701129643838639e-01 0.0000000000000000e+00  2.3553389964624318e+00 2.7657353545452706e-01 0.0000000000000000e+00  2.1956725235456798e+00 2.9156282475611006e-01 0.0000000000000000e+00  2.0615075633121083e+00 3.0321864977349877e-01 0.0000000000000000e+00  1.9285034886504235e+00 2.9462408290991310e-01 0.0000000000000000e+00  1.8573595980938427e+00 2.9136761960131252e-01 0.0000000000000000e+00  1.7835876968304227e+00 3.0457163114003227e-01 0.0000000000000000e+00  1.6906694982369486e+00 3.2372032361186115e-01 0.0000000000000000e+00  1.5594581165549577e+00 3.4443777341002818e-01 0.0000000000000000e+00  1.4829704823797361e+00 3.4781617127832648e-01 0.0000000000000000e+00  1.4578904672854709e+00 3.5369089994469433e-01 0.0000000000000000e+00  1.4359142013908655e+00 3.7082230015715534e-01 0.0000000000000000e+00  1.8145335672854859e+00 3.0394403595510555e-01 0.0000000000000000e+00  1.6015119132777258e+00 -1.2920028859761346e-01 0.0000000000000000e+00  0.0000000000000000e+00 0.0000000000000000e+00 0.0000000000000000e+00  0.0000000000000000e+00 0.0000000000000000e+00 0.0000000000000000e+00  1.4293942558737480e+00 3.7908478970217552e-01 0.0000000000000000e+00  1.4229152414674315e+00 3.8418481882627231e-01 0.0000000000000000e+00  1.4129859476109126e+00 3.9080893718665344e-01 0.0000000000000000e+00  1.3983956359338752e+00 3.9945340929601203e-01 0.0000000000000000e+00  1.3542627470790156e+00 4.2001037302606120e-01 0.0000000000000000e+00  1.3220929760505251e+00 4.3234596872165371e-01 0.0000000000000000e+00  1.2757417323018028e+00 4.4673009561562577e-01 0.0000000000000000e+00  1.1387102313472277e+00 4.7347954587642382e-01 0.0000000000000000e+00  8.2326739511025127e-01 4.6419072712093762e-01 0.0000000000000000e+00  7.4952765241405794e-01 4.5752429517851123e-01 0.0000000000000000e+00  4.6798826502616769e-01 4.5675504994694033e-01 0.0000000000000000e+00  4.1756670879805813e-01 4.8967911837510880e-01 0.0000000000000000e+00  3.3093111861942170e-01 5.6338686580710884e-01 0.0000000000000000e+00  3.0162804876738408e-01 5.9217770993090346e-01 0.0000000000000000e+00  2.1879638880982410e-01 6.3069488856348432e-01 0.0000000000000000e+00  1.4765146064828097e-01 5.6987188270059586e-01 0.0000000000000000e+00  1.3439164773421369e-01 5.3825325902085919e-01 0.0000000000000000e+00  9.7311552647770194e-02 4.4735382317379596e-01 0.0000000000000000e+00  7.4121336976577787e-02 3.8290593296127790e-01 0.0000000000000000e+00  1.6219933826194459e-02 2.2753494703976010e-01 0.0000000000000000e+00  -3.4868054257924205e-02 -1.7448739015315826e-01 0.0000000000000000e+00  1.6566342346330024e-01 -5.2515738859881889e-01 0.0000000000000000e+00  4.8703440609077137e-01 -6.4314350066159631e-01 0.0000000000000000e+00  5.7495660923783154e-01 -6.6599837364473102e-01 0.0000000000000000e+00  1.2646708206273070e+00 -7.8348797044148089e-01 0.0000000000000000e+00  1.4666725355582724e+00 -7.3926057446027804e-01 0.0000000000000000e+00  1.6834768840335415e+00 -5.4904848463370604e-01 0.0000000000000000e+00  2.0304630604876515e+00 -6.9155344196385826e-01 0.0000000000000000e+00  2.0559027500726441e+00 -8.9301372829605985e-01 0.0000000000000000e+00  2.1765353640676008e+00 -9.8990878438146945e-01 0.0000000000000000e+00  2.3391180034581311e+00 -1.0443699616857591e+00 0.0000000000000000e+00  2.4104307560145033e+00 -1.0639854481407327e+00 0.0000000000000000e+00  2.6091170059333875e+00 -1.0514467415527282e+00 0.0000000000000000e+00  2.5789770784521613e+00 -7.3747202453691429e-01 0.0000000000000000e+00  2.3460683117109977e+00 -6.8608529075634517e-01 0.0000000000000000e+00  2.5693189625998372e+00 -4.8902473795336276e-01 0.0000000000000000e+00  2.6897867673270088e+00 -2.5736231958323752e-01 0.0000000000000000e+00  2.6935987681997156e+00 -6.1993490987652937e-02 0.0000000000000000e+00  2.6615637536559027e+00 1.3697468489904413e-01 0.0000000000000000e+00  2.5760196753028919e+00 2.3710760348207827e-01 0.0000000000000000e+00  2.5139200594179743e+00 2.6381200766333784e-01 0.0000000000000000e+00  2.4463155669455019e+00 2.6235621189272318e-01 0.0000000000000000e+00  2.2935085671893383e+00 2.9483302963514774e-01 0.0000000000000000e+00  1.9943934089706024e+00 2.9643323996584603e-01 0.0000000000000000e+00  1.6205579378410406e+00 3.3466971905890563e-01 0.0000000000000000e+00  1.5101625831745675e+00 3.4651201740765758e-01 0.0000000000000000e+00  1.4662689902106292e+00 3.5018051653138554e-01 0.0000000000000000e+00  1.4511587423208723e+00 3.5879430606153873e-01 0.0000000000000000e+00  1.4447634254919635e+00 3.6363360099759540e-01 0.0000000000000000e+00  1.4397338380968523e+00 3.6758476260993417e-01 0.0000000000000000e+00  2.0116029038727663e+00 3.4626611683152159e-01 0.0000000000000000e+00  2.2398802866785870e+00 3.7802210052389484e-01 0.0000000000000000e+00  2.4770243189252326e+00 3.5774818177491163e-01 0.0000000000000000e+00  2.6777486507991668e+00 2.6722591184913219e-01 0.0000000000000000e+00  2.7608935672038357e+00 9.4170539888595681e-02 0.0000000000000000e+00  2.6488890552767312e+00 -9.0037841309874522e-02 0.0000000000000000e+00  2.3842392708498972e+00 -1.9793410204370843e-01 0.0000000000000000e+00  2.0964834882999561e+00 -2.0583350437034678e-01 0.0000000000000000e+00  1.8346110971032612e+00 -1.6820628519065087e-01 0.0000000000000000e+00  1.5079188528129952e+00 9.9976685016518962e-02 0.0000000000000000e+00  1.4087150358762714e+00 2.9804701721985138e-01 0.0000000000000000e+00  1.2926079837822604e+00 4.6121017011729787e-01 0.0000000000000000e+00  1.1655773718808962e+00 5.8476566686155851e-01 0.0000000000000000e+00  1.0454993709701712e+00 6.5792782025683116e-01 0.0000000000000000e+00  9.3941569605778374e-01 6.3452047148448953e-01 0.0000000000000000e+00  7.9877007588515714e-01 4.9222711355036319e-01 0.0000000000000000e+00  5.8611474543256725e-01 3.1801203865305022e-01 0.0000000000000000e+00  3.2180231549951360e-01 1.7460529158990090e-01 0.0000000000000000e+00  3.6571644478535686e-01 -2.0023332383671014e-01 0.0000000000000000e+00  6.6411864414516908e-01 -4.0839534489551343e-01 0.0000000000000000e+00  8.7137387418955481e-01 -6.4864112804001550e-01 0.0000000000000000e+00  9.5874286534294262e-01 -7.7312680848899940e-01 0.0000000000000000e+00  1.0295872338605379e+00 -6.6377306001288228e-01 0.0000000000000000e+00  1.1835914760009396e+00 -4.3704437706124621e-01 0.0000000000000000e+00  1.3857167727765403e+00 -2.2569069166429656e-01 0.0000000000000000e+00  1.5694535651834249e+00 -4.8955665391893860e-02 0.0000000000000000e+00  1.7089147238727487e+00 1.1721394388060795e-01 0.0000000000000000e+00  0.0000000000000000e+00 0.0000000000000000e+00 0.0000000000000000e+00  0.0000000000000000e+00 0.0000000000000000e+00 0.0000000000000000e+00  0.0000000000000000e+00 0.0000000000000000e+00 0.0000000000000000e+00  0.0000000000000000e+00 0.0000000000000000e+00 0.0000000000000000e+00  0.0000000000000000e+00 0.0000000000000000e+00 0.0000000000000000e+00  0.0000000000000000e+00 0.0000000000000000e+00 0.0000000000000000e+00  0.0000000000000000e+00 0.0000000000000000e+00 0.0000000000000000e+00  0.0000000000000000e+00 0.0000000000000000e+00 0.0000000000000000e+00  0.0000000000000000e+00 0.0000000000000000e+00 0.0000000000000000e+00  2.6564121637603364e+00 -3.7262364719581698e-01 0.0000000000000000e+00  2.1320159750561398e+00 4.1862640433590059e-02 0.0000000000000000e+00  2.1480852515625973e-01 -8.5698522884078893e-02 0.0000000000000000e+00  2.3138038134041730e-01 5.3812554368054051e-02 0.0000000000000000e+00  1.6113944159806417e+00 3.4647608244111000e-01 0.0000000000000000e+00  1.2306079405548933e+00 5.2682206406498266e-01 0.0000000000000000e+00  2.6874340746218826e+00 1.3329459274912972e-01 0.0000000000000000e+00  1.2601984933852202e+00 -5.9377849153315798e-01 0.0000000000000000e+00  -2.7502431038360843e-02 -1.2104835804349567e-02 0.0000000000000000e+00  6.5558247335962072e-01 3.9923831673046367e-01 0.0000000000000000e+00  8.7482821763473195e-01 -6.8596599317337015e-01 0.0000000000000000e+00  1.4045410074584747e-01 5.9750033138984741e-02 0.0000000000000000e+00  1.8923872642997525e-01 -8.6361885620194159e-02 0.0000000000000000e+00  1.8643075987011450e+00 2.0628871682971153e-01 0.0000000000000000e+00  1.6601560999008946e+00 4.2822656114084937e-03 0.0000000000000000e+00  2.4226888526623233e-01 3.6948664323714059e-01 0.0000000000000000e+00  2.1925642794730895e+00 -6.2138888435510808e-01 0.0000000000000000e+00  2.1987334678140069e+00 -8.1379060291218797e-01 0.0000000000000000e+00  2.5180760877680388e+00 -9.1545998598420020e-01 0.0000000000000000e+00  2.5326572430728604e+00 -3.8102572987498096e-01 0.0000000000000000e+00  2.2353835975226030e-01 5.5847571247084982e-01 0.0000000000000000e+00  1.4244463958828069e+00 3.7512191828889646e-01 0.0000000000000000e+00  1.6457421123416371e-02 -3.1206882801233429e-02 0.0000000000000000e+00  1.9361658920984888e+00 8.9537139981905212e-02 0.0000000000000000e+00  1.5628663416570541e+00 -2.5723335444179624e-01 0.0000000000000000e+00  2.5125021294152359e+00 1.6137811782329375e-01 0.0000000000000000e+00  2.3278807353178945e+00 -5.5188930818734092e-02 0.0000000000000000e+00  2.0558895925154617e+00 8.7280090658550538e-02 0.0000000000000000e+00  3.5403861604531983e-01 1.5333140346743404e-01 0.0000000000000000e+00  5.1894460283679478e-01 -3.2478280747976163e-01 0.0000000000000000e+00  9.9322909799863413e-01 6.0363766896382531e-01 0.0000000000000000e+00  1.6620541272860396e+00 1.7713924793317715e-01 0.0000000000000000e+00  7.2898614349707874e-02 -8.5306809279502779e-02 0.0000000000000000e+00  1.3715280631966487e+00 4.7738863114040553e-01 0.0000000000000000e+00  1.6005845099455682e+00 3.9212198672473791e-01 0.0000000000000000e+00  3.0595630447246103e-01 1.4220117470407437e-01 0.0000000000000000e+00  4.1151790987330483e-01 -2.9007585379302181e-01 0.0000000000000000e+00  7.5392915587177783e-02 7.4689961102842508e-03 0.0000000000000000e+00  8.6534075472613700e-02 -9.8723160299448356e-03 0.0000000000000000e+00  1.0434024353605820e+00 -7.2233756147328310e-01 0.0000000000000000e+00  2.7026134900164669e+00 6.1315853935131663e-02 0.0000000000000000e+00  1.3680457813079552e+00 4.3726645711498519e-01 0.0000000000000000e+00  2.5610471791235612e+00 1.3061339556683996e-01 0.0000000000000000e+00  2.6341174111666295e+00 1.4550492974318902e-01 0.0000000000000000e+00  1.3310377115139866e+00 -6.0928660433469728e-01 0.0000000000000000e+00  -1.5646477588379622e-02 -1.9766173641749965e-03 0.0000000000000000e+00  6.8874094420222209e-01 4.2742494188441821e-01 0.0000000000000000e+00  9.0999419690838801e-01 -7.3064373579009467e-01 0.0000000000000000e+00  1.3817222994166176e-01 3.0978742659333147e-01 0.0000000000000000e+00  2.4976101285194949e+00 -4.3895755757568022e-01 0.0000000000000000e+00  2.4998871945771564e-01 4.7355202881058328e-01 0.0000000000000000e+00  2.2930546038150084e+00 -5.0120717819672944e-01 0.0000000000000000e+00  2.0697103621425872e+00 -5.1089256355695478e-01 0.0000000000000000e+00  2.3419909670757755e+00 -9.3077090283611930e-01 0.0000000000000000e+00  2.2069441549062048e+00 -7.0834798949065225e-01 0.0000000000000000e+00  2.6135327966561888e+00 -8.6896469647452501e-01 0.0000000000000000e+00  2.6012666263512410e+00 -3.5444534352663604e-01 0.0000000000000000e+00  2.1118526776837898e+00 -7.8257520062429964e-01 0.0000000000000000e+00  2.5671660911745851e+00 -4.3753031891230337e-01 0.0000000000000000e+00  2.1601276228914719e+00 -9.1282039681604699e-01 0.0000000000000000e+00  2.5595965774398879e+00 -1.0023616448933923e+00 0.0000000000000000e+00  2.4839381363197437e+00 -8.2509782620723082e-01 0.0000000000000000e+00  1.8224476675038054e-01 5.3622572678528468e-01 0.0000000000000000e+00  2.4378798339405103e-01 5.9526909092394897e-01 0.0000000000000000e+00  1.9491519481232217e-01 5.8728851400865312e-01 0.0000000000000000e+00  1.4032956467096733e+00 3.8645874457058543e-01 0.0000000000000000e+00  1.4326097488277911e+00 3.7026059445949272e-01 0.0000000000000000e+00  1.4273598521653048e+00 3.7645528523917571e-01 0.0000000000000000e+00  1.8710586654975438e+00 -1.9875439332569420e-01 0.0000000000000000e+00  2.2862781706131510e+00 1.8681178449230376e-01 0.0000000000000000e+00  4.2024292108822969e-02 1.7808658090590290e-02 0.0000000000000000e+00  2.5156522381854023e+00 2.1482130629653186e-02 0.0000000000000000e+00  2.0473977937266361e-01 -7.4460691653394459e-02 0.0000000000000000e+00  1.6703474235848310e+00 -6.3704968218945862e-02 0.0000000000000000e+00  2.6958358572188343e+00 1.4616723546943891e-01 0.0000000000000000e+00  2.4713050701798966e+00 9.8435922545398014e-02 0.0000000000000000e+00  5.5758914342910426e-01 3.1199060077935986e-01 0.0000000000000000e+00  -9.2611116478046734e-03 -2.2327102576716763e-02 0.0000000000000000e+00  4.5523122389475451e-01 2.1884288422714843e-01 0.0000000000000000e+00  4.6346382113546497e-02 -3.1935349457949277e-02 0.0000000000000000e+00  1.8939093823888091e+00 4.4981100710311354e-02 0.0000000000000000e+00  1.3216396692391721e+00 -4.3163604890847979e-01 0.0000000000000000e+00  1.4554675456804672e-01 3.4741168907787313e-02 0.0000000000000000e+00  1.0692479981572158e+00 5.3377446028658360e-01 0.0000000000000000e+00  1.9987820038272530e+00 2.0890205423467409e-01 0.0000000000000000e+00  1.0968800413744313e+00 6.1185109886913802e-01 0.0000000000000000e+00  7.0530260725213600e-01 -5.0033600816854418e-01 0.0000000000000000e+00  1.9162668538199628e+00 2.2857321851928117e-01 0.0000000000000000e+00  1.4478129061315195e+00 3.6766294070549782e-01 0.0000000000000000e+00  8.2383720714865205e-01 5.5186445231025250e-01 0.0000000000000000e+00  -5.9603654010268514e-02 -2.1218614981638042e-02 0.0000000000000000e+00  1.7902671365108709e+00 8.1934780883098010e-02 0.0000000000000000e+00  2.3333508427263965e+00 -2.5005080222142595e-01 0.0000000000000000e+00  6.1370954591927360e-02 5.9163851554452300e-02 0.0000000000000000e+00  7.4986399891080269e-01 -5.6567506999759010e-01 0.0000000000000000e+00  1.0542711109905760e+00 -7.1993721414540379e-01 0.0000000000000000e+00  2.5181675710656619e+00 -4.4388498112870357e-02 0.0000000000000000e+00  2.7012065608566982e-01 1.2174926376346035e-01 0.0000000000000000e+00  1.4754140299548221e-01 -2.6939175704831636e-01 0.0000000000000000e+00  2.6423496832385833e+00 1.7661345013942231e-01 0.0000000000000000e+00  1.4217797591380941e+00 4.5090049600353288e-01 0.0000000000000000e+00  -6.9908072177663448e-03 -1.0853232576870145e-01 0.0000000000000000e+00  1.9501800375178910e-01 -1.2515602027896244e-01 0.0000000000000000e+00  1.5015479593488203e+00 4.1757438788308837e-01 0.0000000000000000e+00  1.5593084541060220e+00 3.8916873015151171e-01 0.0000000000000000e+00  1.7418955086258241e+00 3.5048110465100674e-01 0.0000000000000000e+00  1.0250433492815834e+00 -7.2460201071007135e-01 0.0000000000000000e+00  2.2962727193549046e+00 1.2923430810619996e-01 0.0000000000000000e+00  9.3260303938223121e-01 -7.3301170139350857e-01 0.0000000000000000e+00  3.5511639274670559e-01 2.5925127393924718e-01 0.0000000000000000e+00  4.1594410863894948e-01 -4.1515174260234011e-01 0.0000000000000000e+00  1.4147359671141009e+00 3.9327655745122225e-01 0.0000000000000000e+00  1.4376795753206648e+00 -6.1345853413054252e-01 0.0000000000000000e+00  8.0527495662902338e-01 5.0763221094956346e-01 0.0000000000000000e+00  2.6062683714269248e+00 -2.5332985731732205e-01 0.0000000000000000e+00  1.71645761286764