<?xml version="1.0"?>
<VTKFile type="UnstructuredGrid"  version="0.1"  >
<UnstructuredGrid>
<Piece  NumberOfPoints="2868" NumberOfCells="5400">
<Points>
<DataArray  type="Float64"  NumberOfComponents="3"  format="ascii">0.534923 0.326073 0  0.510642 0.314196 0  0.466125 0.293082 0  0.436448 0.281205 0  0.409468 0.275927 0  0.368998 0.270648 0  0.35281 0.275927 0  0.381139 0.302319 0  0.405421 0.326073 0  0.410817 0.33531 0  0.408119 0.349826 0  0.400025 0.357744 0  0.375743 0.368301 0  0.329878 0.392055 0  0.297502 0.432963 0  0.282663 0.476511 0  0.285361 0.524018 0  0.298851 0.572845 0  0.317737 0.6045160000000001 0  0.337972 0.6361869999999999 0  0.360904 0.674457 0  0.368998 0.69953 0  0.359555 0.7219640000000001 0  0.360904 0.757594 0  0.370347 0.766831 0  0.381139 0.762872 0  0.390582 0.741758 0  0.404072 0.720644 0  0.424307 0.707448 0  0.447239 0.702169 0  0.480964 0.704808 0  0.479615 0.6889729999999999 0  0.468823 0.675776 0  0.447239 0.6691780000000001 0  0.428354 0.6691780000000001 0  0.410817 0.6639 0  0.404072 0.653343 0  0.395978 0.628269 0  0.387884 0.59132 0  0.389233 0.576804 0  0.397327 0.557009 0  0.410817 0.547772 0  0.424307 0.546452 0  0.437797 0.55305 0  0.44589 0.5662469999999999 0  0.441843 0.582082 0  0.439145 0.5979179999999999 0  0.449937 0.609795 0  0.468823 0.603196 0  0.479615 0.59 0  0.489058 0.570205 0  0.494454 0.546452 0  0.505246 0.522699 0  0.522783 0.509502 0  0.55246 0.494986 0  0.586185 0.484429 0  0.615863 0.48047 0  0.64554 0.473872 0  0.6671240000000001 0.461995 0  0.683312 0.451438 0  0.696802 0.435603 0  0.703547 0.417128 0  0.7116400000000001 0.393374 0  0.7183850000000001 0.37226 0  0.7251300000000001 0.364342 0  0.739969 0.353785 0  0.7453650000000001 0.344548 0  0.7453650000000001 0.327393 0  0.737271 0.318155 0  0.7183850000000001 0.316835 0  0.7008490000000001 0.319475 0  0.677916 0.318155 0  0.650936 0.316835 0  0.610467 0.318155 0  0.57944 0.324753 0  0.559205 0.328712 0  0.5389699999999999 0.326073 0  1 1 0  1 0 0  0 0 0  0 1 0  0.532238 0.32476 0  0.528748 0.323052 0  0.52421 0.320833 0  0.518311 0.317947 0  0.503447 0.310783 0  0.494093 0.306347 0  0.481933 0.30058 0  0.452151 0.28749 0  0.392327 0.273691 0  0.379141 0.271971 0  0.360474 0.283066 0  0.369797 0.291752 0  0.391424 0.31238 0  0.399335 0.32012 0  0.40958 0.341964 0  0.393939 0.36039 0  0.386028 0.36383 0  0.364248 0.374254 0  0.349304 0.381994 0  0.315801 0.409841 0  0.292986 0.551616 0  0.350934 0.657818 0  0.360127 0.737055 0  0.360566 0.748664 0  0.385245 0.753692 0  0.396447 0.732578 0  0.466301 0.703661 0  0.459439 0.672908 0  0.418442 0.666195 0  0.400553 0.642441 0  0.39255 0.612619 0  0.389913 0.60058 0  0.392752 0.568197 0  0.444131 0.573132 0  0.458149 0.606926 0  0.5005540000000001 0.533026 0  0.571522 0.489019 0  0.632637 0.476741 0  0.689177 0.444553 0  0.708121 0.403702 0  0.715453 0.38144 0  0.732406 0.359166 0  0.7453650000000001 0.337089 0  0.72906 0.317581 0  0.629879 0.317522 0  0.59293 0.321884 0  0.568003 0.326991 0  0.55202 0.327775 0  0.546493 0.327054 0  0.542241 0.326499 0  1 0.9 0  1 0.8 0  1 0.7 0  1 0.6 0  1 0.5 0  1 0.4 0  1 0.3 0  1 0.2 0  1 0.1 0  0.9 0 0  0.8 0 0  0.7 0 0  0.6 0 0  0.5 0 0  0.4 0 0  0.3 0 0  0.2 0 0  0.1 0 0  0.1 1 0  0.2 1 0  0.3 1 0  0.4 1 0  0.5 1 0  0.6 1 0  0.7 1 0  0.8 1 0  0.9 1 0  0 0.1 0  0 0.2 0  0 0.3 0  0 0.4 0  0 0.5 0  0 0.6 0  0 0.7 0  0 0.8 0  0 0.9 0  0.535686 0.5031910000000001 0  0.753987 0.733359 0  0.167145 0.741436 0  0.173378 0.257204 0  0.733497 0.159862 0  0.554096 0.15788 0  0.849187 0.479053 0  0.488793 0.838452 0  0.138507 0.5592 0  0.30686 0.154944 0  0.348904 0.890523 0  0.058006 0.065099 0  0.06984899999999999 0.937917 0  0.93633 0.939704 0  0.934625 0.053613 0  0.343397 0.333452 0  0.473272 0.639943 0  0.433266 0.638072 0  0.415174 0.58269 0  0.533435 0.545042 0  0.390848 0.340652 0  0.53655 0.320242 0  0.127966 0.393775 0  0.83861 0.850455 0  0.635242 0.8551299999999999 0  0.852158 0.633441 0  0.653427 0.626848 0  0.861226 0.24292 0  0.166128 0.12976 0  0.216875 0.8698709999999999 0  0.458305 0.11179 0  0.84446 0.101633 0  0.202024 0.642528 0  0.644825 0.115855 0  0.671342 0.218358 0  0.251354 0.286186 0  0.262388 0.75153 0  0.063044 0.751571 0  0.068189 0.242962 0  0.435781 0.9053949999999999 0  0.934144 0.451133 0  0.568393 0.237622 0  0.814984 0.395506 0  0.752951 0.517227 0  0.456254 0.780699 0  0.073352 0.531116 0  0.337731 0.206071 0  0.363213 0.960371 0  0.330742 0.363592 0  0.516613 0.55705 0  0.369057 0.332992 0  0.500926 0.617309 0  0.498004 0.665534 0  0.412142 0.61178 0  0.454233 0.6366039999999999 0  0.422782 0.567496 0  0.541193 0.5214800000000001 0  0.439761 0.65557 0  0.5163 0.533672 0  0.414775 0.64562 0  0.40073 0.576135 0  0.430362 0.5880339999999999 0  0.385432 0.351492 0  0.400298 0.335397 0  0.398325 0.348194 0  0.528702 0.314885 0  0.540814 0.322334 0  0.534477 0.322953 0  0.619095 0.743583 0  0.885162 0.737972 0  0.08076 0.668849 0  0.90734 0.36634 0  0.09468699999999999 0.868937 0  0.759838 0.912152 0  0.901518 0.540898 0  0.747285 0.607479 0  0.229182 0.071641 0  0.06915399999999999 0.450091 0  0.244775 0.203309 0  0.076534 0.331755 0  0.897847 0.167826 0  0.578909 0.911415 0  0.07713299999999999 0.146341 0  0.477215 0.203448 0  0.922631 0.869341 0  0.517415 0.074785 0  0.297026 0.827793 0  0.7832710000000001 0.246505 0  0.74519 0.061079 0  0.36033 0.069068 0  0.210313 0.475228 0  0.859426 0.928758 0  0.5745479999999999 0.609182 0  0.243069 0.383398 0  0.283099 0.934598 0  0.417416 0.843141 0  0.643942 0.553164 0  0.112687 0.079336 0  0.281357 0.658386 0  0.765043 0.436177 0  0.611361 0.198486 0  0.234496 0.58911 0  0.206479 0.702638 0  0.679608 0.155818 0  0.62682 0.259978 0  0.690538 0.264164 0  0.448938 0.956308 0  0.808154 0.328403 0  0.379583 0.91913 0  0.308083 0.297769 0  0.312358 0.730249 0  0.563101 0.278576 0  0.435597 0.746198 0  0.385475 0.225229 0  0.572248 0.518034 0  0.357864 0.35422 0  0.497647 0.641694 0  0.458101 0.655768 0  0.360474 0.310727 0  0.467038 0.620139 0  0.47798 0.659909 0  0.41102 0.628072 0  0.48324 0.609015 0  0.427544 0.617941 0  0.388633 0.328253 0  0.405336 0.599404 0  0.408351 0.565178 0  0.42395 0.600985 0  0.431562 0.576523 0  0.424905 0.6551979999999999 0  0.398064 0.58782 0  0.427739 0.557934 0  0.5192909999999999 0.303443 0  0.53142 0.320293 0  0.5449000000000001 0.323642 0  0.537166 0.323513 0  0.153974 0.920841 0  0.9181859999999999 0.67343 0  0.759946 0.820588 0  0.5375259999999999 0.783091 0  0.816532 0.545843 0  0.813991 0.178083 0  0.836774 0.702023 0  0.149815 0.318856 0  0.662287 0.923338 0  0.680146 0.791192 0  0.708961 0.663172 0  0.9372779999999999 0.287318 0  0.574622 0.6881660000000001 0  0.5894740000000001 0.076262 0  0.502822 0.926683 0  0.222269 0.811068 0  0.380457 0.164786 0  0.15321 0.684154 0  0.458063 0.051413 0  0.161702 0.056026 0  0.199351 0.198818 0  0.298946 0.09553200000000001 0  0.902465 0.795949 0  0.121139 0.791477 0  0.906269 0.112287 0  0.056109 0.822332 0  0.512172 0.13237 0  0.940964 0.741805 0  0.888887 0.408777 0  0.354543 0.825964 0  0.808736 0.068638 0  0.068507 0.394071 0  0.719105 0.563843 0  0.247287 0.149664 0  0.293062 0.237128 0  0.240524 0.434997 0  0.141255 0.623289 0  0.945202 0.160621 0  0.502914 0.247629 0  0.144669 0.480811 0  0.665025 0.060817 0  0.728047 0.224344 0  0.861995 0.313312 0  0.200068 0.534235 0  0.253262 0.965623 0  0.893804 0.49307 0  0.604391 0.572456 0  0.947088 0.345347 0  0.439372 0.227307 0  0.629847 0.159823 0  0.273405 0.880181 0  0.302744 0.776823 0  0.781502 0.295365 0  0.275342 0.349602 0  0.7283849999999999 0.472798 0  0.229136 0.246478 0  0.807794 0.480346 0  0.709476 0.112786 0  0.275506 0.694991 0  0.771674 0.394419 0  0.449715 0.861802 0  0.419159 0.799696 0  0.674851 0.503139 0  0.280443 0.61016 0  0.572443 0.192538 0  0.393113 0.87525 0  0.405555 0.948428 0  0.330942 0.934103 0  0.540509 0.597101 0  0.312763 0.6689310000000001 0  0.254368 0.540179 0  0.595265 0.25915 0  0.606679 0.234099 0  0.657131 0.279138 0  0.722458 0.279478 0  0.333 0.308056 0  0.351529 0.246142 0  0.455714 0.7257940000000001 0  0.585239 0.295143 0  0.340062 0.72492 0  0.545593 0.293773 0  0.555449 0.545426 0  0.414311 0.737314 0  0.590854 0.502323 0  0.350507 0.368444 0  0.484423 0.625665 0  0.483899 0.674542 0  0.378137 0.317274 0  0.446416 0.646404 0  0.373532 0.347654 0  0.446876 0.619769 0  0.466106 0.666068 0  0.437545 0.609254 0  0.434988 0.565726 0  0.41462 0.656829 0  0.418803 0.556961 0  0.398425 0.327446 0  0.517803 0.310421 0  0.549516 0.322918 0  0.57701 0.842889 0  0.8291269999999999 0.773906 0  0.643235 0.684732 0  0.134281 0.207734 0  0.865997 0.055966 0  0.680959 0.723345 0  0.165229 0.8415550000000001 0  0.54558 0.959672 0  0.783726 0.656439 0  0.913315 0.595533 0  0.699439 0.860667 0  0.785839 0.125076 0  0.551673 0.037713 0  0.9200970000000001 0.223214 0  0.206406 0.299726 0  0.087064 0.596401 0  0.935644 0.394252 0  0.964557 0.252582 0  0.230124 0.928346 0  0.120579 0.271764 0  0.8572149999999999 0.524082 0  0.7670979999999999 0.5551469999999999 0  0.936094 0.507131 0  0.804064 0.59585 0  0.700565 0.608273 0  0.429773 0.174231 0  0.117746 0.727333 0  0.5389620000000001 0.730231 0  0.862761 0.359173 0  0.821444 0.284046 0  0.193552 0.35818 0  0.234923 0.505555 0  0.193209 0.421217 0  0.220144 0.755896 0  0.594015 0.131642 0  0.283813 0.195855 0  0.517519 0.213961 0  0.553509 0.639116 0  0.280391 0.378018 0  0.852183 0.436817 0  0.746983 0.197173 0  0.821806 0.221318 0  0.449853 0.828453 0  0.883758 0.453926 0  0.183484 0.589542 0  0.348384 0.129314 0  0.255254 0.838525 0  0.504849 0.798516 0  0.320344 0.863432 0  0.611669 0.525425 0  0.265864 0.804962 0  0.72056 0.521442 0  0.613372 0.6101220000000001 0  0.481262 0.881068 0  0.655778 0.191988 0  0.701921 0.196918 0  0.5658260000000001 0.5731810000000001 0  0.46914 0.240927 0  0.343219 0.173284 0  0.888786 0.278502 0  0.244113 0.6750930000000001 0  0.739546 0.417914 0  0.784023 0.355942 0  0.326805 0.265549 0  0.248616 0.6
[...]
<PointData  Vectors="f_21"> 
<DataArray  type="Float64"  Name="f_21"  NumberOfComponents="3" format="ascii">1.4393369408253565e+00 3.9274506979356555e-01 0.0000000000000000e+00  1.3825963595057134e+00 4.2692819179189234e-01 0.0000000000000000e+00  1.2104701237619424e+00 4.7721380993264401e-01 0.0000000000000000e+00  1.0596108771469164e+00 4.9211664651894954e-01 0.0000000000000000e+00  9.1736299181951175e-01 4.8509669951835721e-01 0.0000000000000000e+00  6.7975299451776316e-01 4.6057051978491270e-01 0.0000000000000000e+00  5.4063283379725147e-01 4.2348780522643570e-01 0.0000000000000000e+00  3.7603793922957174e-01 5.3765921921448911e-01 0.0000000000000000e+00  2.8495804408416281e-01 6.2514036352670022e-01 0.0000000000000000e+00  2.4978571758150508e-01 6.4584619625507200e-01 0.0000000000000000e+00  1.9376073309841232e-01 6.3557273514008839e-01 0.0000000000000000e+00  1.6267545967684022e-01 6.0397695800511897e-01 0.0000000000000000e+00  1.2168999616427675e-01 5.0518453037885014e-01 0.0000000000000000e+00  5.3062480235660008e-02 3.0413578636766281e-01 0.0000000000000000e+00  -1.9826796698116121e-02 1.4453887126179404e-01 0.0000000000000000e+00  -5.5653155208684607e-02 1.8792644506839627e-02 0.0000000000000000e+00  -5.1624164620300964e-02 -9.9984070546161416e-02 0.0000000000000000e+00  -1.7242114400785439e-02 -2.2914534786160762e-01 0.0000000000000000e+00  3.1380416058724020e-02 -3.4128716131946035e-01 0.0000000000000000e+00  1.0305950712639375e-01 -4.5369624655783691e-01 0.0000000000000000e+00  2.2270034604933145e-01 -5.8165155950221226e-01 0.0000000000000000e+00  3.1681457844555433e-01 -6.3014507060658520e-01 0.0000000000000000e+00  4.0687522761855122e-01 -6.1879283204243618e-01 0.0000000000000000e+00  6.8487240804952654e-01 -6.8270285069665126e-01 0.0000000000000000e+00  9.1703125200116531e-01 -7.5962899962821151e-01 0.0000000000000000e+00  1.1099533934021342e+00 -7.8290979203571387e-01 0.0000000000000000e+00  1.4092238345679535e+00 -7.8066839871158733e-01 0.0000000000000000e+00  1.5640441643249963e+00 -7.1884604554739273e-01 0.0000000000000000e+00  1.6352170297423101e+00 -6.4325658145782805e-01 0.0000000000000000e+00  1.6720920558692201e+00 -5.8397498003828885e-01 0.0000000000000000e+00  1.7793736769550361e+00 -5.7675171177058782e-01 0.0000000000000000e+00  1.9527332226108831e+00 -6.1570866384857803e-01 0.0000000000000000e+00  2.0416082321391982e+00 -6.6759128008568347e-01 0.0000000000000000e+00  2.0744370733189013e+00 -7.6636780191076004e-01 0.0000000000000000e+00  2.0699235230013087e+00 -8.6360606512460880e-01 0.0000000000000000e+00  2.0956577083295800e+00 -9.5781148217662659e-01 0.0000000000000000e+00  2.1509033570401441e+00 -9.9484450950961500e-01 0.0000000000000000e+00  2.2856352143980363e+00 -1.0458032857815343e+00 0.0000000000000000e+00  2.5037763997323901e+00 -1.1041960277294445e+00 0.0000000000000000e+00  2.5936306865570202e+00 -1.0977307264894560e+00 0.0000000000000000e+00  2.7169812041154318e+00 -1.0489540684721785e+00 0.0000000000000000e+00  2.7744589739381484e+00 -9.6589422207792697e-01 0.0000000000000000e+00  2.7827463593017439e+00 -8.8277075456719012e-01 0.0000000000000000e+00  2.7420971326739205e+00 -7.9945675802608784e-01 0.0000000000000000e+00  2.6600128307667035e+00 -7.4907573806019945e-01 0.0000000000000000e+00  2.5601081558802128e+00 -7.7515134899989957e-01 0.0000000000000000e+00  2.4578685031496774e+00 -7.9721621426000677e-01 0.0000000000000000e+00  2.3770682541426997e+00 -7.4425044522311723e-01 0.0000000000000000e+00  2.3915646512586446e+00 -6.4960095869455747e-01 0.0000000000000000e+00  2.4348252399523482e+00 -5.9455828174271530e-01 0.0000000000000000e+00  2.4972352330385261e+00 -5.4700568294487995e-01 0.0000000000000000e+00  2.5701852526158162e+00 -5.2044550773272891e-01 0.0000000000000000e+00  2.6436944836884093e+00 -4.8110894910116059e-01 0.0000000000000000e+00  2.6834967892540127e+00 -4.2139979968845415e-01 0.0000000000000000e+00  2.7218070083027377e+00 -3.2171298301453938e-01 0.0000000000000000e+00  2.7427320492480805e+00 -2.1283561773489199e-01 0.0000000000000000e+00  2.7398873147807321e+00 -1.1794251410019724e-01 0.0000000000000000e+00  2.7321673553674017e+00 -1.9194211752554247e-02 0.0000000000000000e+00  2.7279175495263863e+00 5.2189258852142921e-02 0.0000000000000000e+00  2.7150062580039873e+00 1.1345141228939000e-01 0.0000000000000000e+00  2.6906458506936146e+00 1.7422207108020149e-01 0.0000000000000000e+00  2.6497831638111391e+00 2.2054902852691224e-01 0.0000000000000000e+00  2.5878016971252777e+00 2.6145465587310179e-01 0.0000000000000000e+00  2.5241547039700643e+00 2.7813478207856568e-01 0.0000000000000000e+00  2.5018820989618962e+00 2.7389460455790177e-01 0.0000000000000000e+00  2.4533903624047046e+00 2.7917605798984502e-01 0.0000000000000000e+00  2.3871536736850469e+00 2.9031878201988115e-01 0.0000000000000000e+00  2.2215703859957787e+00 3.0798737823133049e-01 0.0000000000000000e+00  2.0828133047767845e+00 3.2166273286313807e-01 0.0000000000000000e+00  1.9459061807689384e+00 3.1465350848434387e-01 0.0000000000000000e+00  1.8727443711221370e+00 3.1217159427627628e-01 0.0000000000000000e+00  1.7968049734980460e+00 3.2614148534135667e-01 0.0000000000000000e+00  1.7015687522978096e+00 3.4532672601985986e-01 0.0000000000000000e+00  1.5678104771256645e+00 3.6489654749294642e-01 0.0000000000000000e+00  1.4899013742106626e+00 3.6694893386357968e-01 0.0000000000000000e+00  1.4643291937292382e+00 3.7203311427912422e-01 0.0000000000000000e+00  1.4421502664297470e+00 3.8848996583143997e-01 0.0000000000000000e+00  1.8150014106086445e+00 3.2466647475803567e-01 0.0000000000000000e+00  1.6010294959036142e+00 -1.3051858584603321e-01 0.0000000000000000e+00  0.0000000000000000e+00 0.0000000000000000e+00 0.0000000000000000e+00  0.0000000000000000e+00 0.0000000000000000e+00 0.0000000000000000e+00  1.4355875226345680e+00 3.9653361825841754e-01 0.0000000000000000e+00  1.4290911481079491e+00 4.0151904372276115e-01 0.0000000000000000e+00  1.4191196437658509e+00 4.0798368532012785e-01 0.0000000000000000e+00  1.4044573643475502e+00 4.1638953037736814e-01 0.0000000000000000e+00  1.3601253843934016e+00 4.3618681167306639e-01 0.0000000000000000e+00  1.3278750905013883e+00 4.4796464223394272e-01 0.0000000000000000e+00  1.2815031840484006e+00 4.6157577475490158e-01 0.0000000000000000e+00  1.1445356294076372e+00 4.8671135734074472e-01 0.0000000000000000e+00  8.2871769106682591e-01 4.7443308512569821e-01 0.0000000000000000e+00  7.5500147164878817e-01 4.6709341816236294e-01 0.0000000000000000e+00  4.7319995813482252e-01 4.6621935352424115e-01 0.0000000000000000e+00  4.2272887127961395e-01 4.9933884584830024e-01 0.0000000000000000e+00  3.3653201518222958e-01 5.7322899652272452e-01 0.0000000000000000e+00  3.0738196853170924e-01 6.0221218793174747e-01 0.0000000000000000e+00  2.2424431218351656e-01 6.4116331796666759e-01 0.0000000000000000e+00  1.5218511696298131e-01 5.7980496832253026e-01 0.0000000000000000e+00  1.3862926047774171e-01 5.4785563455062980e-01 0.0000000000000000e+00  1.0066661966912323e-01 4.5610236341546229e-01 0.0000000000000000e+00  7.6919925117987495e-02 3.9129104209788451e-01 0.0000000000000000e+00  1.6737095039224697e-02 2.3544567258861163e-01 0.0000000000000000e+00  -3.5341713131936146e-02 -1.7067407018424297e-01 0.0000000000000000e+00  1.6574020784673574e-01 -5.2694683013853982e-01 0.0000000000000000e+00  4.9173148210978868e-01 -6.5005877774792797e-01 0.0000000000000000e+00  5.8111906840495031e-01 -6.7401094499798020e-01 0.0000000000000000e+00  1.2805998421154960e+00 -7.9726114814403182e-01 0.0000000000000000e+00  1.4858456351960716e+00 -7.5320879070254154e-01 0.0000000000000000e+00  1.7064632584089598e+00 -5.6083805471704951e-01 0.0000000000000000e+00  2.0578951770005398e+00 -7.0852264068240178e-01 0.0000000000000000e+00  2.0840932117286104e+00 -9.1665398696229416e-01 0.0000000000000000e+00  2.2083220936835462e+00 -1.0159352022971400e+00 0.0000000000000000e+00  2.3747073218786792e+00 -1.0704972729326669e+00 0.0000000000000000e+00  2.4468948258297254e+00 -1.0899163166769956e+00 0.0000000000000000e+00  2.6472734337863373e+00 -1.0767441373042503e+00 0.0000000000000000e+00  2.6167809520077152e+00 -7.6015621450793891e-01 0.0000000000000000e+00  2.3832123873936091e+00 -7.0318749024295379e-01 0.0000000000000000e+00  2.6114903482661003e+00 -4.9777493525874489e-01 0.0000000000000000e+00  2.7339943660239272e+00 -2.5980449129606464e-01 0.0000000000000000e+00  2.7376943521271704e+00 -6.3034804344929432e-02 0.0000000000000000e+00  2.7059709456907113e+00 1.4100107763527445e-01 0.0000000000000000e+00  2.6164354464332682e+00 2.4607996371339347e-01 0.0000000000000000e+00  2.5516415432123667e+00 2.7425914444655497e-01 0.0000000000000000e+00  2.4816158941312243e+00 2.7353815210065463e-01 0.0000000000000000e+00  2.3228926881471224e+00 3.1020313623925960e-01 0.0000000000000000e+00  2.0137788359160034e+00 3.1565773809705805e-01 0.0000000000000000e+00  1.6299967687785630e+00 3.5576038051952824e-01 0.0000000000000000e+00  1.5175920715102866e+00 3.6622562461437586e-01 0.0000000000000000e+00  1.4728898673743296e+00 3.6885202867195521e-01 0.0000000000000000e+00  1.4575458933150927e+00 3.7689271257789120e-01 0.0000000000000000e+00  1.4510906856251493e+00 3.8155139440674651e-01 0.0000000000000000e+00  1.4460100965136733e+00 3.8536212122731645e-01 0.0000000000000000e+00  2.0168030308993052e+00 3.6528102070645502e-01 0.0000000000000000e+00  2.2538484792713125e+00 3.9306273539254999e-01 0.0000000000000000e+00  2.5036408106100820e+00 3.6870043536504177e-01 0.0000000000000000e+00  2.7167041152420177e+00 2.7250784667621092e-01 0.0000000000000000e+00  2.8050357048851513e+00 9.1804943587743951e-02 0.0000000000000000e+00  2.6879595356272752e+00 -1.0054004401094083e-01 0.0000000000000000e+00  2.4104120244709497e+00 -2.1203479772879852e-01 0.0000000000000000e+00  2.1057989089832061e+00 -2.1614598944740199e-01 0.0000000000000000e+00  1.8364471828813529e+00 -1.7164483806078204e-01 0.0000000000000000e+00  1.5076808660581817e+00 1.0404712245317288e-01 0.0000000000000000e+00  1.4118601272343445e+00 3.0624165542287735e-01 0.0000000000000000e+00  1.2975877745241209e+00 4.7385358403665895e-01 0.0000000000000000e+00  1.1746498578174691e+00 6.0128530584800166e-01 0.0000000000000000e+00  1.0597192432336011e+00 6.7150223582648061e-01 0.0000000000000000e+00  9.5363649740547329e-01 6.4020313765735093e-01 0.0000000000000000e+00  8.0896793725496574e-01 4.9466802442955871e-01 0.0000000000000000e+00  5.9188104584245527e-01 3.1848640734277717e-01 0.0000000000000000e+00  3.2277710466064730e-01 1.7435190584920868e-01 0.0000000000000000e+00  3.7061102162245113e-01 -2.0219544939481351e-01 0.0000000000000000e+00  6.7432045538863639e-01 -4.1137871804542070e-01 0.0000000000000000e+00  8.8644836801046101e-01 -6.5486989034839516e-01 0.0000000000000000e+00  9.7414970705930415e-01 -7.8584076007728365e-01 0.0000000000000000e+00  1.0432730991681138e+00 -6.7732457783311384e-01 0.0000000000000000e+00  1.1968780360821822e+00 -4.4744898600234956e-01 0.0000000000000000e+00  1.3969886814743779e+00 -2.3112334842468571e-01 0.0000000000000000e+00  1.5754556015195937e+00 -4.4719899501180223e-02 0.0000000000000000e+00  1.7107975973701020e+00 1.3222992262980032e-01 0.0000000000000000e+00  0.0000000000000000e+00 0.0000000000000000e+00 0.0000000000000000e+00  0.0000000000000000e+00 0.0000000000000000e+00 0.0000000000000000e+00  0.0000000000000000e+00 0.0000000000000000e+00 0.0000000000000000e+00  0.0000000000000000e+00 0.0000000000000000e+00 0.0000000000000000e+00  0.0000000000000000e+00 0.0000000000000000e+00 0.0000000000000000e+00  0.0000000000000000e+00 0.0000000000000000e+00 0.0000000000000000e+00  0.0000000000000000e+00 0.0000000000000000e+00 0.0000000000000000e+00  0.0000000000000000e+00 0.0000000000000000e+00 0.0000000000000000e+00  0.0000000000000000e+00 0.0000000000000000e+00 0.0000000000000000e+00  2.7007398724655638e+00 -3.7762655449992044e-01 0.0000000000000000e+00  2.1572277467468099e+00 3.7356226352323364e-02 0.0000000000000000e+00  2.1530523322310405e-01 -8.2590319241034355e-02 0.0000000000000000e+00  2.3589270931977849e-01 5.2926075987256044e-02 0.0000000000000000e+00  1.6174187829591808e+00 3.6228809088757896e-01 0.0000000000000000e+00  1.2398022191245428e+00 5.4450843419668582e-01 0.0000000000000000e+00  2.7328209700626558e+00 1.3449743725030741e-01 0.0000000000000000e+00  1.2759099626486408e+00 -6.0658914274753706e-01 0.0000000000000000e+00  -2.7177678818499123e-02 -9.0410368908272649e-03 0.0000000000000000e+00  6.6503354300706030e-01 4.0308359800744120e-01 0.0000000000000000e+00  8.8728454064622220e-01 -6.9558722213573398e-01 0.0000000000000000e+00  1.4163671844572528e-01 5.9435135877245797e-02 0.0000000000000000e+00  1.9211193916553962e-01 -8.7149692410517773e-02 0.0000000000000000e+00  1.8691101948832445e+00 2.2245429477178186e-01 0.0000000000000000e+00  1.6610200418091152e+00 5.9235198907934749e-03 0.0000000000000000e+00  2.4645276955086678e-01 3.7826506853556130e-01 0.0000000000000000e+00  2.2247950423573921e+00 -6.3590181735609219e-01 0.0000000000000000e+00  2.2311514151346059e+00 -8.3529288485962849e-01 0.0000000000000000e+00  2.5557067044260759e+00 -9.3938587870728152e-01 0.0000000000000000e+00  2.5738143378356071e+00 -3.8665449743958691e-01 0.0000000000000000e+00  2.2891672659945800e-01 5.6832303866755174e-01 0.0000000000000000e+00  1.4307973601806783e+00 3.9273104479795351e-01 0.0000000000000000e+00  1.6192001844734970e-02 -3.1084561978473115e-02 0.0000000000000000e+00  1.9519900676582054e+00 9.2677551018280097e-02 0.0000000000000000e+00  1.5820600614108395e+00 -2.6546247083224705e-01 0.0000000000000000e+00  2.5497223427492810e+00 1.6134079373917670e-01 0.0000000000000000e+00  2.3637378475457811e+00 -5.9438989920180665e-02 0.0000000000000000e+00  2.0698505857375160e+00 9.2208139511913756e-02 0.0000000000000000e+00  3.5987462135632647e-01 1.5175154749591699e-01 0.0000000000000000e+00  5.2661501412103584e-01 -3.2548904256474925e-01 0.0000000000000000e+00  1.0033267862219364e+00 6.1517506170631819e-01 0.0000000000000000e+00  1.6647460863777865e+00 1.8466856898790282e-01 0.0000000000000000e+00  7.2334420203428396e-02 -8.0589960773228331e-02 0.0000000000000000e+00  1.3806460327053633e+00 4.9496275732819339e-01 0.0000000000000000e+00  1.6102213448004334e+00 4.1277020350915045e-01 0.0000000000000000e+00  3.1051073469877072e-01 1.4600817702662647e-01 0.0000000000000000e+00  4.1464018670296732e-01 -2.8876188255874174e-01 0.0000000000000000e+00  7.5559630492936847e-02 9.6425830086024379e-03 0.0000000000000000e+00  8.8750317770809550e-02 -1.2513945797272837e-02 0.0000000000000000e+00  1.0574856273693838e+00 -7.3598540378043198e-01 0.0000000000000000e+00  2.7467756953851681e+00 5.7663717113381321e-02 0.0000000000000000e+00  1.3770066033408155e+00 4.5633485805414953e-01 0.0000000000000000e+00  2.6012975750786302e+00 1.3538299169322299e-01 0.0000000000000000e+00  2.6786906950418845e+00 1.4685878672377459e-01 0.0000000000000000e+00  1.3484274997926518e+00 -6.2233660030974680e-01 0.0000000000000000e+00  -1.5459509565062857e-02 -4.7711342576146193e-04 0.0000000000000000e+00  6.9689542220112777e-01 4.3416073630668195e-01 0.0000000000000000e+00  9.2444525369030695e-01 -7.4150366619822750e-01 0.0000000000000000e+00  1.4124422413303916e-01 3.1802016277513590e-01 0.0000000000000000e+00  2.5379397098530485e+00 -4.4642123383871701e-01 0.0000000000000000e+00  2.5505365966569365e-01 4.8286367909397027e-01 0.0000000000000000e+00  2.3285803685850710e+00 -5.1121583764734535e-01 0.0000000000000000e+00  2.0989007598648874e+00 -5.2228324623022504e-01 0.0000000000000000e+00  2.3777988078641843e+00 -9.5509591429647567e-01 0.0000000000000000e+00  2.2395080217900825e+00 -7.2625740472377076e-01 0.0000000000000000e+00  2.6516708447686161e+00 -8.9256634953817637e-01 0.0000000000000000e+00  2.6442553038001333e+00 -3.5899441313668329e-01 0.0000000000000000e+00  2.1416418017105965e+00 -8.0290909388471243e-01 0.0000000000000000e+00  2.6092666919380836e+00 -4.4470677726162716e-01 0.0000000000000000e+00  2.1914299771247734e+00 -9.3694684032040121e-01 0.0000000000000000e+00  2.5974199065685206e+00 -1.0272457066583982e+00 0.0000000000000000e+00  2.5214403521113931e+00 -8.4793669125784510e-01 0.0000000000000000e+00  1.8711658005836673e-01 5.4584590586441162e-01 0.0000000000000000e+00  2.4941274911728203e-01 6.0540670861251467e-01 0.0000000000000000e+00  2.0009308995525499e-01 5.9739644812692561e-01 0.0000000000000000e+00  1.4096151603343448e+00 4.0381597477840653e-01 0.0000000000000000e+00  1.4389787529325875e+00 3.8800821348432751e-01 0.0000000000000000e+00  1.4336175124289721e+00 3.9398148348380185e-01 0.0000000000000000e+00  1.8957395201550222e+00 -2.0594020385706147e-01 0.0000000000000000e+00  2.3102945188843345e+00 1.8932054189108916e-01 0.0000000000000000e+00  4.1767013574947630e-02 1.9458968799347501e-02 0.0000000000000000e+00  2.5519469332953002e+00 1.8815941752941937e-02 0.0000000000000000e+00  2.0752646548831014e-01 -7.4030768199838282e-02 0.0000000000000000e+00  1.6854986490129888e+00 -6.5568304143436174e-02 0.0000000000000000e+00  2.7408674135516118e+00 1.4571663344064481e-01 0.0000000000000000e+00  2.5107326356258968e+00 9.5411516324482873e-02 0.0000000000000000e+00  5.6518629016462918e-01 3.1226260430158315e-01 0.0000000000000000e+00  -9.5996830687412257e-03 -2.1844090394995505e-02 0.0000000000000000e+00  4.6280441786257220e-01 2.2047315725242406e-01 0.0000000000000000e+00  4.6693202911758235e-02 -3.3976150526597811e-02 0.0000000000000000e+00  1.8991078660790928e+00 4.7435436756018030e-02 0.0000000000000000e+00  1.3373353342132179e+00 -4.4235928101173694e-01 0.0000000000000000e+00  1.4774178185146539e-01 3.3115855136030249e-02 0.0000000000000000e+00  1.0775285780801063e+00 5.4822900654667450e-01 0.0000000000000000e+00  2.0089189141873822e+00 2.2032469575987160e-01 0.0000000000000000e+00  1.1068553259067093e+00 6.2701888525399407e-01 0.0000000000000000e+00  7.1532706740354135e-01 -5.0523111343890870e-01 0.0000000000000000e+00  1.9285568620380502e+00 2.4231339601965660e-01 0.0000000000000000e+00  1.4532878140628180e+00 3.7891792562972265e-01 0.0000000000000000e+00  8.3492413278175215e-01 5.5591138240804294e-01 0.0000000000000000e+00  -6.1520842128988430e-02 -1.6947583500653278e-02 0.0000000000000000e+00  1.8002291053430508e+00 9.0849846680849083e-02 0.0000000000000000e+00  2.3698661585433611e+00 -2.5473633975374349e-01 0.0000000000000000e+00  6.1216731163041757e-02 6.3534554853279884e-02 0.0000000000000000e+00  7.6173836843947651e-01 -5.7052325622853783e-01 0.0000000000000000e+00  1.0680709338123031e+00 -7.3336395740896343e-01 0.0000000000000000e+00  2.5594022510295051e+00 -4.6518710354098707e-02 0.0000000000000000e+00  2.7315537647346072e-01 1.2078350367533570e-01 0.0000000000000000e+00  1.4763592568445494e-01 -2.6724133073780526e-01 0.0000000000000000e+00  2.6859604875601342e+00 1.8212862393400867e-01 0.0000000000000000e+00  1.4315250464270786e+00 4.7081589498645637e-01 0.0000000000000000e+00  -7.6120957076889605e-03 -1.0403557295274056e-01 0.0000000000000000e+00  1.9530187878566768e-01 -1.2137925800264240e-01 0.0000000000000000e+00  1.5097386560763832e+00 4.3528179951961471e-01 0.0000000000000000e+00  1.5694891569634368e+00 4.1044140747789321e-01 0.0000000000000000e+00  1.7537451942134519e+00 3.7216870053268852e-01 0.0000000000000000e+00  1.0393494135303742e+00 -7.3798017674250838e-01 0.0000000000000000e+00  2.3250061138830995e+00 1.3709016389319534e-01 0.0000000000000000e+00  9.4626305593293547e-01 -7.4488859416194164e-01 0.0000000000000000e+00  3.5958181117086324e-01 2.6686989741857609e-01 0.0000000000000000e+00  4.1894697831670691e-01 -4.1684808979655008e-01 0.0000000000000000e+00  1.4226488022953090e+00 4.1205592710593913e-01 0.0000000000000000e+00  1.4566382250848458e+00 -6.2606488059125132e-01 0.0000000000000000e+00  8.1280234115929129e-01 5.1699711227460277e-01 0.0000000000000000e+00  2.6492055768244329e+00 -2.5578148612052037e-01 0.0000000000000000e+00  1.75749990317776