<?xml version="1.0"?>
<VTKFile type="UnstructuredGrid"  version="0.1"  >
<UnstructuredGrid>
<Piece  NumberOfPoints="2868" NumberOfCells="5400">
<Points>
<DataArray  type="Float64"  NumberOfComponents="3"  format="ascii">0.534923 0.326073 0  0.510642 0.314196 0  0.466125 0.293082 0  0.436448 0.281205 0  0.409468 0.275927 0  0.368998 0.270648 0  0.35281 0.275927 0  0.381139 0.302319 0  0.405421 0.326073 0  0.410817 0.33531 0  0.408119 0.349826 0  0.400025 0.357744 0  0.375743 0.368301 0  0.329878 0.392055 0  0.297502 0.432963 0  0.282663 0.476511 0  0.285361 0.524018 0  0.298851 0.572845 0  0.317737 0.6045160000000001 0  0.337972 0.6361869999999999 0  0.360904 0.674457 0  0.368998 0.69953 0  0.359555 0.7219640000000001 0  0.360904 0.757594 0  0.370347 0.766831 0  0.381139 0.762872 0  0.390582 0.741758 0  0.404072 0.720644 0  0.424307 0.707448 0  0.447239 0.702169 0  0.480964 0.704808 0  0.479615 0.6889729999999999 0  0.468823 0.675776 0  0.447239 0.6691780000000001 0  0.428354 0.6691780000000001 0  0.410817 0.6639 0  0.404072 0.653343 0  0.395978 0.628269 0  0.387884 0.59132 0  0.389233 0.576804 0  0.397327 0.557009 0  0.410817 0.547772 0  0.424307 0.546452 0  0.437797 0.55305 0  0.44589 0.5662469999999999 0  0.441843 0.582082 0  0.439145 0.5979179999999999 0  0.449937 0.609795 0  0.468823 0.603196 0  0.479615 0.59 0  0.489058 0.570205 0  0.494454 0.546452 0  0.505246 0.522699 0  0.522783 0.509502 0  0.55246 0.494986 0  0.586185 0.484429 0  0.615863 0.48047 0  0.64554 0.473872 0  0.6671240000000001 0.461995 0  0.683312 0.451438 0  0.696802 0.435603 0  0.703547 0.417128 0  0.7116400000000001 0.393374 0  0.7183850000000001 0.37226 0  0.7251300000000001 0.364342 0  0.739969 0.353785 0  0.7453650000000001 0.344548 0  0.7453650000000001 0.327393 0  0.737271 0.318155 0  0.7183850000000001 0.316835 0  0.7008490000000001 0.319475 0  0.677916 0.318155 0  0.650936 0.316835 0  0.610467 0.318155 0  0.57944 0.324753 0  0.559205 0.328712 0  0.5389699999999999 0.326073 0  1 1 0  1 0 0  0 0 0  0 1 0  0.532238 0.32476 0  0.528748 0.323052 0  0.52421 0.320833 0  0.518311 0.317947 0  0.503447 0.310783 0  0.494093 0.306347 0  0.481933 0.30058 0  0.452151 0.28749 0  0.392327 0.273691 0  0.379141 0.271971 0  0.360474 0.283066 0  0.369797 0.291752 0  0.391424 0.31238 0  0.399335 0.32012 0  0.40958 0.341964 0  0.393939 0.36039 0  0.386028 0.36383 0  0.364248 0.374254 0  0.349304 0.381994 0  0.315801 0.409841 0  0.292986 0.551616 0  0.350934 0.657818 0  0.360127 0.737055 0  0.360566 0.748664 0  0.385245 0.753692 0  0.396447 0.732578 0  0.466301 0.703661 0  0.459439 0.672908 0  0.418442 0.666195 0  0.400553 0.642441 0  0.39255 0.612619 0  0.389913 0.60058 0  0.392752 0.568197 0  0.444131 0.573132 0  0.458149 0.606926 0  0.5005540000000001 0.533026 0  0.571522 0.489019 0  0.632637 0.476741 0  0.689177 0.444553 0  0.708121 0.403702 0  0.715453 0.38144 0  0.732406 0.359166 0  0.7453650000000001 0.337089 0  0.72906 0.317581 0  0.629879 0.317522 0  0.59293 0.321884 0  0.568003 0.326991 0  0.55202 0.327775 0  0.546493 0.327054 0  0.542241 0.326499 0  1 0.9 0  1 0.8 0  1 0.7 0  1 0.6 0  1 0.5 0  1 0.4 0  1 0.3 0  1 0.2 0  1 0.1 0  0.9 0 0  0.8 0 0  0.7 0 0  0.6 0 0  0.5 0 0  0.4 0 0  0.3 0 0  0.2 0 0  0.1 0 0  0.1 1 0  0.2 1 0  0.3 1 0  0.4 1 0  0.5 1 0  0.6 1 0  0.7 1 0  0.8 1 0  0.9 1 0  0 0.1 0  0 0.2 0  0 0.3 0  0 0.4 0  0 0.5 0  0 0.6 0  0 0.7 0  0 0.8 0  0 0.9 0  0.535686 0.5031910000000001 0  0.753987 0.733359 0  0.167145 0.741436 0  0.173378 0.257204 0  0.733497 0.159862 0  0.554096 0.15788 0  0.849187 0.479053 0  0.488793 0.838452 0  0.138507 0.5592 0  0.30686 0.154944 0  0.348904 0.890523 0  0.058006 0.065099 0  0.06984899999999999 0.937917 0  0.93633 0.939704 0  0.934625 0.053613 0  0.343397 0.333452 0  0.473272 0.639943 0  0.433266 0.638072 0  0.415174 0.58269 0  0.533435 0.545042 0  0.390848 0.340652 0  0.53655 0.320242 0  0.127966 0.393775 0  0.83861 0.850455 0  0.635242 0.8551299999999999 0  0.852158 0.633441 0  0.653427 0.626848 0  0.861226 0.24292 0  0.166128 0.12976 0  0.216875 0.8698709999999999 0  0.458305 0.11179 0  0.84446 0.101633 0  0.202024 0.642528 0  0.644825 0.115855 0  0.671342 0.218358 0  0.251354 0.286186 0  0.262388 0.75153 0  0.063044 0.751571 0  0.068189 0.242962 0  0.435781 0.9053949999999999 0  0.934144 0.451133 0  0.568393 0.237622 0  0.814984 0.395506 0  0.752951 0.517227 0  0.456254 0.780699 0  0.073352 0.531116 0  0.337731 0.206071 0  0.363213 0.960371 0  0.330742 0.363592 0  0.516613 0.55705 0  0.369057 0.332992 0  0.500926 0.617309 0  0.498004 0.665534 0  0.412142 0.61178 0  0.454233 0.6366039999999999 0  0.422782 0.567496 0  0.541193 0.5214800000000001 0  0.439761 0.65557 0  0.5163 0.533672 0  0.414775 0.64562 0  0.40073 0.576135 0  0.430362 0.5880339999999999 0  0.385432 0.351492 0  0.400298 0.335397 0  0.398325 0.348194 0  0.528702 0.314885 0  0.540814 0.322334 0  0.534477 0.322953 0  0.619095 0.743583 0  0.885162 0.737972 0  0.08076 0.668849 0  0.90734 0.36634 0  0.09468699999999999 0.868937 0  0.759838 0.912152 0  0.901518 0.540898 0  0.747285 0.607479 0  0.229182 0.071641 0  0.06915399999999999 0.450091 0  0.244775 0.203309 0  0.076534 0.331755 0  0.897847 0.167826 0  0.578909 0.911415 0  0.07713299999999999 0.146341 0  0.477215 0.203448 0  0.922631 0.869341 0  0.517415 0.074785 0  0.297026 0.827793 0  0.7832710000000001 0.246505 0  0.74519 0.061079 0  0.36033 0.069068 0  0.210313 0.475228 0  0.859426 0.928758 0  0.5745479999999999 0.609182 0  0.243069 0.383398 0  0.283099 0.934598 0  0.417416 0.843141 0  0.643942 0.553164 0  0.112687 0.079336 0  0.281357 0.658386 0  0.765043 0.436177 0  0.611361 0.198486 0  0.234496 0.58911 0  0.206479 0.702638 0  0.679608 0.155818 0  0.62682 0.259978 0  0.690538 0.264164 0  0.448938 0.956308 0  0.808154 0.328403 0  0.379583 0.91913 0  0.308083 0.297769 0  0.312358 0.730249 0  0.563101 0.278576 0  0.435597 0.746198 0  0.385475 0.225229 0  0.572248 0.518034 0  0.357864 0.35422 0  0.497647 0.641694 0  0.458101 0.655768 0  0.360474 0.310727 0  0.467038 0.620139 0  0.47798 0.659909 0  0.41102 0.628072 0  0.48324 0.609015 0  0.427544 0.617941 0  0.388633 0.328253 0  0.405336 0.599404 0  0.408351 0.565178 0  0.42395 0.600985 0  0.431562 0.576523 0  0.424905 0.6551979999999999 0  0.398064 0.58782 0  0.427739 0.557934 0  0.5192909999999999 0.303443 0  0.53142 0.320293 0  0.5449000000000001 0.323642 0  0.537166 0.323513 0  0.153974 0.920841 0  0.9181859999999999 0.67343 0  0.759946 0.820588 0  0.5375259999999999 0.783091 0  0.816532 0.545843 0  0.813991 0.178083 0  0.836774 0.702023 0  0.149815 0.318856 0  0.662287 0.923338 0  0.680146 0.791192 0  0.708961 0.663172 0  0.9372779999999999 0.287318 0  0.574622 0.6881660000000001 0  0.5894740000000001 0.076262 0  0.502822 0.926683 0  0.222269 0.811068 0  0.380457 0.164786 0  0.15321 0.684154 0  0.458063 0.051413 0  0.161702 0.056026 0  0.199351 0.198818 0  0.298946 0.09553200000000001 0  0.902465 0.795949 0  0.121139 0.791477 0  0.906269 0.112287 0  0.056109 0.822332 0  0.512172 0.13237 0  0.940964 0.741805 0  0.888887 0.408777 0  0.354543 0.825964 0  0.808736 0.068638 0  0.068507 0.394071 0  0.719105 0.563843 0  0.247287 0.149664 0  0.293062 0.237128 0  0.240524 0.434997 0  0.141255 0.623289 0  0.945202 0.160621 0  0.502914 0.247629 0  0.144669 0.480811 0  0.665025 0.060817 0  0.728047 0.224344 0  0.861995 0.313312 0  0.200068 0.534235 0  0.253262 0.965623 0  0.893804 0.49307 0  0.604391 0.572456 0  0.947088 0.345347 0  0.439372 0.227307 0  0.629847 0.159823 0  0.273405 0.880181 0  0.302744 0.776823 0  0.781502 0.295365 0  0.275342 0.349602 0  0.7283849999999999 0.472798 0  0.229136 0.246478 0  0.807794 0.480346 0  0.709476 0.112786 0  0.275506 0.694991 0  0.771674 0.394419 0  0.449715 0.861802 0  0.419159 0.799696 0  0.674851 0.503139 0  0.280443 0.61016 0  0.572443 0.192538 0  0.393113 0.87525 0  0.405555 0.948428 0  0.330942 0.934103 0  0.540509 0.597101 0  0.312763 0.6689310000000001 0  0.254368 0.540179 0  0.595265 0.25915 0  0.606679 0.234099 0  0.657131 0.279138 0  0.722458 0.279478 0  0.333 0.308056 0  0.351529 0.246142 0  0.455714 0.7257940000000001 0  0.585239 0.295143 0  0.340062 0.72492 0  0.545593 0.293773 0  0.555449 0.545426 0  0.414311 0.737314 0  0.590854 0.502323 0  0.350507 0.368444 0  0.484423 0.625665 0  0.483899 0.674542 0  0.378137 0.317274 0  0.446416 0.646404 0  0.373532 0.347654 0  0.446876 0.619769 0  0.466106 0.666068 0  0.437545 0.609254 0  0.434988 0.565726 0  0.41462 0.656829 0  0.418803 0.556961 0  0.398425 0.327446 0  0.517803 0.310421 0  0.549516 0.322918 0  0.57701 0.842889 0  0.8291269999999999 0.773906 0  0.643235 0.684732 0  0.134281 0.207734 0  0.865997 0.055966 0  0.680959 0.723345 0  0.165229 0.8415550000000001 0  0.54558 0.959672 0  0.783726 0.656439 0  0.913315 0.595533 0  0.699439 0.860667 0  0.785839 0.125076 0  0.551673 0.037713 0  0.9200970000000001 0.223214 0  0.206406 0.299726 0  0.087064 0.596401 0  0.935644 0.394252 0  0.964557 0.252582 0  0.230124 0.928346 0  0.120579 0.271764 0  0.8572149999999999 0.524082 0  0.7670979999999999 0.5551469999999999 0  0.936094 0.507131 0  0.804064 0.59585 0  0.700565 0.608273 0  0.429773 0.174231 0  0.117746 0.727333 0  0.5389620000000001 0.730231 0  0.862761 0.359173 0  0.821444 0.284046 0  0.193552 0.35818 0  0.234923 0.505555 0  0.193209 0.421217 0  0.220144 0.755896 0  0.594015 0.131642 0  0.283813 0.195855 0  0.517519 0.213961 0  0.553509 0.639116 0  0.280391 0.378018 0  0.852183 0.436817 0  0.746983 0.197173 0  0.821806 0.221318 0  0.449853 0.828453 0  0.883758 0.453926 0  0.183484 0.589542 0  0.348384 0.129314 0  0.255254 0.838525 0  0.504849 0.798516 0  0.320344 0.863432 0  0.611669 0.525425 0  0.265864 0.804962 0  0.72056 0.521442 0  0.613372 0.6101220000000001 0  0.481262 0.881068 0  0.655778 0.191988 0  0.701921 0.196918 0  0.5658260000000001 0.5731810000000001 0  0.46914 0.240927 0  0.343219 0.173284 0  0.888786 0.278502 0  0.244113 0.6750930000000001 0  0.739546 0.417914 0  0.784023 0.355942 0  0.326805 0.265549 0  0.248616 0.6
[...]
<PointData  Vectors="f_21"> 
<DataArray  type="Float64"  Name="f_21"  NumberOfComponents="3" format="ascii">2.1009226060845483e-03 -5.9272124153382998e-04 0.0000000000000000e+00  1.2103246831295428e-03 -1.9547632313408973e-04 0.0000000000000000e+00  3.3219770486902491e-04 -2.9316998246702088e-05 0.0000000000000000e+00  1.2635955687669616e-04 -1.2946826661917321e-05 0.0000000000000000e+00  4.7637687065748992e-05 -6.2589128330956247e-06 0.0000000000000000e+00  9.1130929586227896e-06 -1.4278016854379658e-06 0.0000000000000000e+00  2.6188055297094857e-06 -5.5689803258300523e-07 0.0000000000000000e+00  1.2149521958472878e-07 1.1508145861562172e-07 0.0000000000000000e+00  1.8765699866605874e-08 2.6614328704945845e-08 0.0000000000000000e+00  1.2018605161472357e-08 2.5280623666062094e-08 0.0000000000000000e+00  2.6432429022933456e-09 2.1648051867573883e-08 0.0000000000000000e+00  -1.7696440653525412e-09 1.6736028640802829e-08 0.0000000000000000e+00  -6.7138704495307783e-09 4.0725313793314496e-09 0.0000000000000000e+00  -1.3797636455747464e-09 -5.5275733067290278e-09 0.0000000000000000e+00  1.3280109446956592e-10 -9.2307271238651520e-10 0.0000000000000000e+00  5.2174744105589962e-12 -9.2263109401779128e-11 0.0000000000000000e+00  -1.8625277011861492e-12 6.9256523198325060e-13 0.0000000000000000e+00  1.5803416326941858e-11 8.9674115130006842e-11 0.0000000000000000e+00  4.5622629712558368e-11 4.8197517514495176e-10 0.0000000000000000e+00  -2.6926639908108919e-11 2.0199106132302647e-09 0.0000000000000000e+00  -2.9177069816441212e-09 7.2522869170284698e-09 0.0000000000000000e+00  -4.2819568932557932e-09 6.6992372076118108e-09 0.0000000000000000e+00  1.6279042418834912e-08 1.0796398550747521e-08 0.0000000000000000e+00  1.1991133875668936e-06 6.5682375403101738e-08 0.0000000000000000e+00  5.0648439358230890e-06 -5.4228971529040476e-07 0.0000000000000000e+00  1.0767894410996489e-05 -8.7539230403531900e-07 0.0000000000000000e+00  2.2377722782102811e-05 -2.2287365356695376e-06 0.0000000000000000e+00  3.7804414125979412e-05 -9.4450097818636903e-07 0.0000000000000000e+00  6.5195611621374588e-05 8.8822419521781810e-06 0.0000000000000000e+00  1.0544879401051406e-04 2.7116290245626886e-05 0.0000000000000000e+00  3.3679767049211409e-04 -5.7250431449643250e-06 0.0000000000000000e+00  4.3452507584081090e-04 -3.6008230237614535e-05 0.0000000000000000e+00  2.9196520368944746e-04 -3.0674586710932514e-05 0.0000000000000000e+00  1.3881178815380957e-04 -2.5201060836514738e-05 0.0000000000000000e+00  8.4345730526136240e-05 -1.5571982256588489e-05 0.0000000000000000e+00  6.4523647145838022e-05 -3.0846209304489351e-07 0.0000000000000000e+00  5.1681532704796814e-05 4.5074167884238161e-06 0.0000000000000000e+00  3.2673277118045637e-05 8.7473825941068639e-06 0.0000000000000000e+00  9.9176633094440974e-06 1.0144559083266043e-05 0.0000000000000000e+00  4.6914417019746258e-06 8.2023155788135021e-06 0.0000000000000000e+00  4.5507177964984935e-07 5.2843609818559111e-06 0.0000000000000000e+00  -8.6531373944606689e-07 3.0281189068877884e-06 0.0000000000000000e+00  -1.0575369650081965e-06 1.4322797089138125e-06 0.0000000000000000e+00  -5.9552297764424879e-07 -1.8705284224636690e-07 0.0000000000000000e+00  1.1608818477205884e-06 -2.0633775418061752e-06 0.0000000000000000e+00  5.9212799773131685e-06 -2.7478183905962987e-06 0.0000000000000000e+00  2.7226757040358322e-05 -7.7385919250648457e-08 0.0000000000000000e+00  1.2487576101486312e-04 -5.8951211129792438e-06 0.0000000000000000e+00  3.3069073816050979e-04 -2.0363128406890584e-05 0.0000000000000000e+00  5.4706161797221295e-04 -4.2162945476425559e-05 0.0000000000000000e+00  8.1191252274446179e-04 -9.4181133159318246e-05 0.0000000000000000e+00  1.1011141043361788e-03 -1.8480667363714041e-04 0.0000000000000000e+00  1.6871599953626570e-03 -2.1715584707857042e-04 0.0000000000000000e+00  2.4036978824109514e-03 -3.1306673575831777e-05 0.0000000000000000e+00  4.5095233058095145e-03 4.3811359460184401e-04 0.0000000000000000e+00  8.8207627289345787e-03 1.3577944600914377e-03 0.0000000000000000e+00  1.5598636459494839e-02 2.2058134934550980e-03 0.0000000000000000e+00  2.7518156202345607e-02 1.7577842841124762e-03 0.0000000000000000e+00  4.1344637310645194e-02 1.8646075662104714e-03 0.0000000000000000e+00  5.2569045638915811e-02 1.0215443964213746e-03 0.0000000000000000e+00  6.4973925757664489e-02 -4.9570565256467508e-04 0.0000000000000000e+00  7.5910996065901862e-02 -2.1072724176111209e-03 0.0000000000000000e+00  8.6082108957679704e-02 -1.9881512607168262e-03 0.0000000000000000e+00  9.2273555151348524e-02 -7.6414004884523348e-04 0.0000000000000000e+00  9.3881062632830428e-02 5.9748093399264012e-04 0.0000000000000000e+00  9.5227507557729199e-02 2.2775641032382215e-03 0.0000000000000000e+00  9.4258417784973930e-02 1.8385547326168763e-03 0.0000000000000000e+00  8.3859138882326517e-02 -2.1720843398785811e-04 0.0000000000000000e+00  6.9681273723217793e-02 -2.3253974640449868e-03 0.0000000000000000e+00  5.2043888323099446e-02 -7.5280987673968496e-03 0.0000000000000000e+00  4.2272014149238119e-02 -9.8521639821871516e-03 0.0000000000000000e+00  3.2940535009386041e-02 -9.0096294512932024e-03 0.0000000000000000e+00  2.1952060350700530e-02 -6.3995844087487205e-03 0.0000000000000000e+00  9.5063149799512990e-03 -3.1184488188801722e-03 0.0000000000000000e+00  4.3955962238301774e-03 -1.8260504926268432e-03 0.0000000000000000e+00  3.0547021323211235e-03 -1.2397272299135508e-03 0.0000000000000000e+00  2.1941558142240499e-03 -6.7552203619768625e-04 0.0000000000000000e+00  2.7866910994759514e-01 -7.7849138089176304e-02 0.0000000000000000e+00  2.7860039622040628e-01 7.8065735092065547e-02 0.0000000000000000e+00  0.0000000000000000e+00 0.0000000000000000e+00 0.0000000000000000e+00  0.0000000000000000e+00 0.0000000000000000e+00 0.0000000000000000e+00  2.0121198339107774e-03 -5.2327080639118272e-04 0.0000000000000000e+00  1.8756077787610115e-03 -4.4632443739697650e-04 0.0000000000000000e+00  1.6916654581795253e-03 -3.6081420149510320e-04 0.0000000000000000e+00  1.4709573909738628e-03 -2.7592835482050397e-04 0.0000000000000000e+00  1.0045752796850381e-03 -1.4486560364529826e-04 0.0000000000000000e+00  7.7304921903752926e-04 -9.4137273150590739e-05 0.0000000000000000e+00  5.5341242400637545e-04 -5.7911437301827631e-05 0.0000000000000000e+00  2.1597917651527089e-04 -1.9805598668155693e-05 0.0000000000000000e+00  2.6685568428193705e-05 -4.9379909469832316e-06 0.0000000000000000e+00  1.5808217045229505e-05 -2.5181348570451373e-06 0.0000000000000000e+00  9.9436725264653894e-07 1.9996221629589901e-07 0.0000000000000000e+00  3.4616311254188979e-07 2.1113040945606333e-07 0.0000000000000000e+00  4.5315876431981364e-08 5.3837794776711831e-08 0.0000000000000000e+00  2.6311336922501585e-08 3.3064450661377806e-08 0.0000000000000000e+00  7.7425998895878492e-09 2.3528246465676112e-08 0.0000000000000000e+00  -3.2878715156759984e-09 1.3523027062318651e-08 0.0000000000000000e+00  -5.2066849247449223e-09 9.7462875555748134e-09 0.0000000000000000e+00  -6.3966238685876560e-09 -1.9266592244014043e-09 0.0000000000000000e+00  -4.3048074319927390e-09 -5.2816379818402821e-09 0.0000000000000000e+00  -5.2733731236741395e-11 -2.9599539797206911e-09 0.0000000000000000e+00  2.2406097901138733e-12 2.8154482998053784e-11 0.0000000000000000e+00  -8.7053686302730170e-10 4.6451495224609870e-09 0.0000000000000000e+00  1.0770111260631393e-07 -9.4402117193756497e-10 0.0000000000000000e+00  4.0691429023595128e-07 -3.2879216840322596e-08 0.0000000000000000e+00  1.6469168525510801e-05 -1.7029041741156909e-06 0.0000000000000000e+00  2.7961593956883831e-05 -2.0383537177641296e-06 0.0000000000000000e+00  1.8220959383738933e-04 3.4482140400836478e-05 0.0000000000000000e+00  2.1305339088654229e-04 -3.3045615165867281e-05 0.0000000000000000e+00  7.0714542751775490e-05 -7.1793321919139354e-06 0.0000000000000000e+00  4.2185320514470288e-05 6.3518172149319826e-06 0.0000000000000000e+00  2.1441996430708327e-05 1.0160820943536896e-05 0.0000000000000000e+00  1.4599365974342859e-05 1.0280732910655620e-05 0.0000000000000000e+00  2.5238910221598994e-06 6.6863034382205689e-06 0.0000000000000000e+00  2.5983549864031986e-06 -2.1970653145220250e-06 0.0000000000000000e+00  2.0877855632326506e-04 -1.0108445521718873e-05 0.0000000000000000e+00  1.3990427720861937e-03 -2.1236272310554537e-04 0.0000000000000000e+00  6.6092677943490243e-03 8.9212339510096994e-04 0.0000000000000000e+00  2.1619699606887526e-02 2.2670578131297587e-03 0.0000000000000000e+00  5.8332273479307528e-02 2.0540832916817657e-04 0.0000000000000000e+00  8.2089365841849019e-02 -2.2443323020963626e-03 0.0000000000000000e+00  8.9939870736521835e-02 -1.3983859585420533e-03 0.0000000000000000e+00  9.4647382495791910e-02 1.6982048721924073e-03 0.0000000000000000e+00  9.1454335583650029e-02 1.7888811189763747e-03 0.0000000000000000e+00  6.0763462261514710e-02 -5.3670775679714932e-03 0.0000000000000000e+00  1.4738079147598702e-02 -4.6391251493887523e-03 0.0000000000000000e+00  6.0425423185092916e-03 -2.3173448130755425e-03 0.0000000000000000e+00  3.4709829137547742e-03 -1.4718449733547138e-03 0.0000000000000000e+00  2.7488391855014661e-03 -1.0123311001360769e-03 0.0000000000000000e+00  2.4987575023117307e-03 -8.5332417388093854e-04 0.0000000000000000e+00  2.3189638291035990e-03 -7.4754508151618406e-04 0.0000000000000000e+00  2.6091155086820311e-01 -4.5585326392153500e-02 0.0000000000000000e+00  2.5310084755548329e-01 -1.8505510682170774e-02 0.0000000000000000e+00  2.5277613650764574e-01 -4.7403784357784775e-03 0.0000000000000000e+00  2.5212466746852280e-01 -4.8593609094884076e-04 0.0000000000000000e+00  2.5201314889649684e-01 -2.6755955818299848e-05 0.0000000000000000e+00  2.5219609572109375e-01 5.7244209500600929e-04 0.0000000000000000e+00  2.5311354752673981e-01 4.5645647796278095e-03 0.0000000000000000e+00  2.5340558897282656e-01 1.8325675448201181e-02 0.0000000000000000e+00  2.6075095362229744e-01 4.5847978690326689e-02 0.0000000000000000e+00  1.8662740604426070e-01 5.9079304857933328e-02 0.0000000000000000e+00  1.0163636111942351e-01 3.4191780242414822e-02 0.0000000000000000e+00  4.0847389670343855e-02 1.3204988593967177e-02 0.0000000000000000e+00  6.9508009002023988e-03 2.2656631099267749e-03 0.0000000000000000e+00  3.0271335290795359e-04 7.6643346680504946e-05 0.0000000000000000e+00  6.4889805238686126e-06 1.4631107318394724e-06 0.0000000000000000e+00  7.9644245672039153e-08 2.5727690278677761e-08 0.0000000000000000e+00  1.2322739843409112e-09 8.8767088167233781e-10 0.0000000000000000e+00  7.1225150714052183e-12 2.7855706611293117e-11 0.0000000000000000e+00  2.0728796687180905e-12 -1.1810094685670880e-12 0.0000000000000000e+00  1.5490395363001940e-10 -8.1339619516056838e-10 0.0000000000000000e+00  3.8946147105136900e-08 -2.6464215415723668e-08 0.0000000000000000e+00  3.7059254400259746e-06 -5.5027077750243075e-07 0.0000000000000000e+00  2.4926086076992811e-04 -5.6591250144841263e-05 0.0000000000000000e+00  6.8233867957702490e-03 -2.1545369972813771e-03 0.0000000000000000e+00  4.0939633670517686e-02 -1.3421710880655960e-02 0.0000000000000000e+00  1.0181960796163431e-01 -3.4252944761173458e-02 0.0000000000000000e+00  1.8662445108611175e-01 -5.9063684185162453e-02 0.0000000000000000e+00  0.0000000000000000e+00 0.0000000000000000e+00 0.0000000000000000e+00  0.0000000000000000e+00 0.0000000000000000e+00 0.0000000000000000e+00  0.0000000000000000e+00 0.0000000000000000e+00 0.0000000000000000e+00  0.0000000000000000e+00 0.0000000000000000e+00 0.0000000000000000e+00  0.0000000000000000e+00 0.0000000000000000e+00 0.0000000000000000e+00  0.0000000000000000e+00 0.0000000000000000e+00 0.0000000000000000e+00  0.0000000000000000e+00 0.0000000000000000e+00 0.0000000000000000e+00  0.0000000000000000e+00 0.0000000000000000e+00 0.0000000000000000e+00  0.0000000000000000e+00 0.0000000000000000e+00 0.0000000000000000e+00  3.1731825329987359e-03 1.3738933620247680e-04 0.0000000000000000e+00  6.2680305001846778e-02 -1.1865509997331834e-03 0.0000000000000000e+00  3.5731547849581521e-10 1.1977628778899553e-10 0.0000000000000000e+00  2.2451365891485527e-09 -3.7539783619668166e-10 0.0000000000000000e+00  4.9192203342356917e-02 2.6784438087552715e-03 0.0000000000000000e+00  2.3453713561077459e-03 8.1429966519291409e-05 0.0000000000000000e+00  1.2845832350868999e-01 1.0728958242736911e-03 0.0000000000000000e+00  2.7851281610223502e-04 -2.2983639584608626e-05 0.0000000000000000e+00  5.2684634973276658e-13 4.4992825468808639e-13 0.0000000000000000e+00  5.7036806604649964e-07 6.1554948459025915e-08 0.0000000000000000e+00  1.1146650480270895e-06 -2.1308995844636804e-07 0.0000000000000000e+00  3.8492353805044003e-12 1.2766967217763171e-12 0.0000000000000000e+00  8.7283600665164633e-13 -3.7400783852946850e-12 0.0000000000000000e+00  2.0825154174480368e-01 -4.7723206480172309e-02 0.0000000000000000e+00  2.0770073568528954e-01 4.9500908926513730e-02 0.0000000000000000e+00  -3.6758701938072529e-09 -3.6460790403563280e-08 0.0000000000000000e+00  2.3927774339279590e-04 -2.0051223692148407e-05 0.0000000000000000e+00  7.2526825925437705e-05 -7.7873202231058056e-06 0.0000000000000000e+00  6.8911625275318430e-06 5.4148367724895022e-06 0.0000000000000000e+00  1.7723772305589475e-03 2.5489810803272378e-05 0.0000000000000000e+00  5.5427349884820364e-09 1.9013395603607583e-08 0.0000000000000000e+00  1.9561175566304677e-03 -5.8214471946467863e-04 0.0000000000000000e+00  1.9008887546724581e-11 -1.4227770048673003e-11 0.0000000000000000e+00  1.1390077049962512e-01 -1.2929346177625157e-02 0.0000000000000000e+00  1.3629812341630665e-02 -7.1526938537766612e-04 0.0000000000000000e+00  1.2934503986313345e-01 -5.6826349090142580e-04 0.0000000000000000e+00  2.0083301217389680e-02 7.4468978008099818e-05 0.0000000000000000e+00  1.3485965193798535e-01 4.7280392579763719e-03 0.0000000000000000e+00  9.1284258880953116e-10 1.8240368802966396e-10 0.0000000000000000e+00  4.6113706409160139e-09 -5.5879818241406978e-10 0.0000000000000000e+00  1.1268408952112456e-04 1.3753995791274690e-05 0.0000000000000000e+00  1.2096304530503675e-01 2.1414127693371431e-02 0.0000000000000000e+00  8.4349059063223564e-11 8.5564556781620932e-11 0.0000000000000000e+00  1.5658729410364444e-02 1.1056935403207745e-03 0.0000000000000000e+00  2.5478046006162693e-02 -2.8920889765801850e-04 0.0000000000000000e+00  4.1492991577883537e-08 -1.8264769776394215e-08 0.0000000000000000e+00  2.5139087561399315e-08 1.0591015644509630e-08 0.0000000000000000e+00  2.9112487547163232e-12 5.6644965971491325e-13 0.0000000000000000e+00  2.2839614716847778e-11 -2.6855323473925457e-12 0.0000000000000000e+00  2.9885223537631049e-05 -2.9165825500737319e-06 0.0000000000000000e+00  1.9774453812866596e-01 1.9071396074413978e-04 0.0000000000000000e+00  3.4884113845183163e-03 -1.5666685259618546e-04 0.0000000000000000e+00  1.1113878422264796e-01 2.6099040310345427e-03 0.0000000000000000e+00  6.4454559955408053e-02 2.2346992505163791e-03 0.0000000000000000e+00  1.0869486339919907e-04 -5.4547071931664096e-06 0.0000000000000000e+00  3.9227752539676887e-14 -7.0225895832481530e-16 0.0000000000000000e+00  2.3144488402882448e-06 1.4501461554251485e-07 0.0000000000000000e+00  1.0935437794734199e-06 -2.5275804665542864e-07 0.0000000000000000e+00  -2.8562374160631602e-09 -1.1591533747663314e-08 0.0000000000000000e+00  1.1867095712483873e-03 -9.8592059801849400e-06 0.0000000000000000e+00  -1.1857639749094430e-09 1.4943144246970104e-08 0.0000000000000000e+00  5.8746528003215048e-04 -5.7109765145814858e-06 0.0000000000000000e+00  5.1379369538365801e-04 -3.5457929570036935e-05 0.0000000000000000e+00  2.8235963545333338e-05 5.6897684132494273e-06 0.0000000000000000e+00  1.3511378918620249e-04 -1.6631336201076545e-05 0.0000000000000000e+00  1.6861821402519703e-06 2.3894170417937768e-06 0.0000000000000000e+00  2.5172453614553986e-03 1.0198837000205444e-04 0.0000000000000000e+00  9.5536952107805372e-05 -1.3872637652731690e-05 0.0000000000000000e+00  1.4906201554888429e-03 -5.7345040354953463e-05 0.0000000000000000e+00  5.0008570597560689e-05 -2.1018008576756752e-06 0.0000000000000000e+00  4.4918241529956587e-06 5.6392627915606720e-06 0.0000000000000000e+00  1.1241064668649948e-05 3.8371955849384299e-06 0.0000000000000000e+00  -5.8945873892410357e-10 1.1694829124486541e-08 0.0000000000000000e+00  1.1421467484519441e-08 2.2493736208298714e-08 0.0000000000000000e+00  2.9683222597487485e-09 1.7141321478468151e-08 0.0000000000000000e+00  1.5934437520450961e-03 -4.1031742983143671e-04 0.0000000000000000e+00  2.1445676828201888e-03 -6.7711313929798538e-04 0.0000000000000000e+00  1.9868765699240305e-03 -5.6474811639593858e-04 0.0000000000000000e+00  1.0724115590503460e-02 -1.1131988970150935e-04 0.0000000000000000e+00  1.5423523909968528e-01 -5.4189792711282622e-03 0.0000000000000000e+00  1.5499058944680776e-12 7.3925052903223700e-13 0.0000000000000000e+00  1.7608710051335050e-01 1.0043771482553306e-03 0.0000000000000000e+00  1.0934575057453659e-11 -1.4956791906482164e-12 0.0000000000000000e+00  6.2372514105699731e-02 -1.0349612351039260e-02 0.0000000000000000e+00  1.7014866457437886e-01 -2.6569128601835126e-05 0.0000000000000000e+00  6.0059794728850341e-02 1.0021707626032738e-04 0.0000000000000000e+00  1.0081042643689792e-08 3.5877246502135618e-09 0.0000000000000000e+00  3.4673349833012478e-13 -2.8859823507527906e-13 0.0000000000000000e+00  6.2412884795717449e-08 8.4275186915759416e-10 0.0000000000000000e+00  1.0912938401589328e-11 -4.0261569184371524e-12 0.0000000000000000e+00  1.6355517710069081e-01 1.6948118743287603e-02 0.0000000000000000e+00  3.6530120889798094e-03 -2.2764311695563412e-04 0.0000000000000000e+00  1.3688086694459508e-11 1.0566652516216642e-12 0.0000000000000000e+00  2.6859264622440434e-04 3.8660319836318718e-06 0.0000000000000000e+00  1.8695169234116080e-01 -2.6917712057374529e-02 0.0000000000000000e+00  6.6748618369801178e-04 7.8280051128119116e-05 0.0000000000000000e+00  1.9745618206194354e-07 -1.4868527959479632e-08 0.0000000000000000e+00  8.0539565058159818e-02 3.5014900488363957e-04 0.0000000000000000e+00  5.6245192067819832e-02 1.1445844195592390e-02 0.0000000000000000e+00  2.3476558230232222e-06 6.0846933514441490e-07 0.0000000000000000e+00  1.0988642319418085e-11 -1.7805141218407048e-11 0.0000000000000000e+00  1.3636872307761391e-01 -3.0255871571211825e-02 0.0000000000000000e+00  4.1473777246109067e-03 -6.8615506458475899e-05 0.0000000000000000e+00  9.2810932949432756e-10 -1.4587827462430690e-09 0.0000000000000000e+00  5.0684742616709003e-08 -1.2769381041224426e-08 0.0000000000000000e+00  2.1276558422480299e-05 -2.2743839827227007e-06 0.0000000000000000e+00  1.7309776213689020e-02 2.4748402953565855e-04 0.0000000000000000e+00  6.9674412696590563e-11 1.7581919142208767e-11 0.0000000000000000e+00  7.4404642830602835e-10 1.9288359286526225e-09 0.0000000000000000e+00  8.1456794266892341e-02 5.4754441709300222e-03 0.0000000000000000e+00  9.0127244825411422e-03 6.0875784356436296e-05 0.0000000000000000e+00  1.7901803963797460e-11 3.1783202815480614e-11 0.0000000000000000e+00  7.2218694135251814e-10 4.7002251285485776e-10 0.0000000000000000e+00  2.7248368444148796e-02 1.2109219704722295e-03 0.0000000000000000e+00  1.2392087709530077e-02 -1.0721009260549932e-03 0.0000000000000000e+00  3.4661902322134674e-02 -2.5904642110521699e-03 0.0000000000000000e+00  4.0082492152092327e-05 -1.0330430237871984e-05 0.0000000000000000e+00  1.0703557741739929e-01 -1.6315990596454896e-03 0.0000000000000000e+00  3.0858942387663345e-06 -5.9183570762731136e-07 0.0000000000000000e+00  1.9625064178385284e-07 -1.7026288053853487e-07 0.0000000000000000e+00  6.1390412846261176e-08 7.0037843176446698e-08 0.0000000000000000e+00  3.0347911207976412e-03 -4.6720655088574816e-04 0.0000000000000000e+00  5.7322309827298214e-05 2.2564120162817647e-06 0.0000000000000000e+00  1.3451804088585855e-05 5.6564338965970567e-07 0.0000000000000000e+00  4.8020696457839922e-03 3.2943569628338516e-04 0.000000