<?xml version="1.0"?>
<VTKFile type="UnstructuredGrid"  version="0.1"  >
<UnstructuredGrid>
<Piece  NumberOfPoints="2868" NumberOfCells="5400">
<Points>
<DataArray  type="Float64"  NumberOfComponents="3"  format="ascii">0.534923 0.326073 0  0.510642 0.314196 0  0.466125 0.293082 0  0.436448 0.281205 0  0.409468 0.275927 0  0.368998 0.270648 0  0.35281 0.275927 0  0.381139 0.302319 0  0.405421 0.326073 0  0.410817 0.33531 0  0.408119 0.349826 0  0.400025 0.357744 0  0.375743 0.368301 0  0.329878 0.392055 0  0.297502 0.432963 0  0.282663 0.476511 0  0.285361 0.524018 0  0.298851 0.572845 0  0.317737 0.6045160000000001 0  0.337972 0.6361869999999999 0  0.360904 0.674457 0  0.368998 0.69953 0  0.359555 0.7219640000000001 0  0.360904 0.757594 0  0.370347 0.766831 0  0.381139 0.762872 0  0.390582 0.741758 0  0.404072 0.720644 0  0.424307 0.707448 0  0.447239 0.702169 0  0.480964 0.704808 0  0.479615 0.6889729999999999 0  0.468823 0.675776 0  0.447239 0.6691780000000001 0  0.428354 0.6691780000000001 0  0.410817 0.6639 0  0.404072 0.653343 0  0.395978 0.628269 0  0.387884 0.59132 0  0.389233 0.576804 0  0.397327 0.557009 0  0.410817 0.547772 0  0.424307 0.546452 0  0.437797 0.55305 0  0.44589 0.5662469999999999 0  0.441843 0.582082 0  0.439145 0.5979179999999999 0  0.449937 0.609795 0  0.468823 0.603196 0  0.479615 0.59 0  0.489058 0.570205 0  0.494454 0.546452 0  0.505246 0.522699 0  0.522783 0.509502 0  0.55246 0.494986 0  0.586185 0.484429 0  0.615863 0.48047 0  0.64554 0.473872 0  0.6671240000000001 0.461995 0  0.683312 0.451438 0  0.696802 0.435603 0  0.703547 0.417128 0  0.7116400000000001 0.393374 0  0.7183850000000001 0.37226 0  0.7251300000000001 0.364342 0  0.739969 0.353785 0  0.7453650000000001 0.344548 0  0.7453650000000001 0.327393 0  0.737271 0.318155 0  0.7183850000000001 0.316835 0  0.7008490000000001 0.319475 0  0.677916 0.318155 0  0.650936 0.316835 0  0.610467 0.318155 0  0.57944 0.324753 0  0.559205 0.328712 0  0.5389699999999999 0.326073 0  1 1 0  1 0 0  0 0 0  0 1 0  0.532238 0.32476 0  0.528748 0.323052 0  0.52421 0.320833 0  0.518311 0.317947 0  0.503447 0.310783 0  0.494093 0.306347 0  0.481933 0.30058 0  0.452151 0.28749 0  0.392327 0.273691 0  0.379141 0.271971 0  0.360474 0.283066 0  0.369797 0.291752 0  0.391424 0.31238 0  0.399335 0.32012 0  0.40958 0.341964 0  0.393939 0.36039 0  0.386028 0.36383 0  0.364248 0.374254 0  0.349304 0.381994 0  0.315801 0.409841 0  0.292986 0.551616 0  0.350934 0.657818 0  0.360127 0.737055 0  0.360566 0.748664 0  0.385245 0.753692 0  0.396447 0.732578 0  0.466301 0.703661 0  0.459439 0.672908 0  0.418442 0.666195 0  0.400553 0.642441 0  0.39255 0.612619 0  0.389913 0.60058 0  0.392752 0.568197 0  0.444131 0.573132 0  0.458149 0.606926 0  0.5005540000000001 0.533026 0  0.571522 0.489019 0  0.632637 0.476741 0  0.689177 0.444553 0  0.708121 0.403702 0  0.715453 0.38144 0  0.732406 0.359166 0  0.7453650000000001 0.337089 0  0.72906 0.317581 0  0.629879 0.317522 0  0.59293 0.321884 0  0.568003 0.326991 0  0.55202 0.327775 0  0.546493 0.327054 0  0.542241 0.326499 0  1 0.9 0  1 0.8 0  1 0.7 0  1 0.6 0  1 0.5 0  1 0.4 0  1 0.3 0  1 0.2 0  1 0.1 0  0.9 0 0  0.8 0 0  0.7 0 0  0.6 0 0  0.5 0 0  0.4 0 0  0.3 0 0  0.2 0 0  0.1 0 0  0.1 1 0  0.2 1 0  0.3 1 0  0.4 1 0  0.5 1 0  0.6 1 0  0.7 1 0  0.8 1 0  0.9 1 0  0 0.1 0  0 0.2 0  0 0.3 0  0 0.4 0  0 0.5 0  0 0.6 0  0 0.7 0  0 0.8 0  0 0.9 0  0.535686 0.5031910000000001 0  0.753987 0.733359 0  0.167145 0.741436 0  0.173378 0.257204 0  0.733497 0.159862 0  0.554096 0.15788 0  0.849187 0.479053 0  0.488793 0.838452 0  0.138507 0.5592 0  0.30686 0.154944 0  0.348904 0.890523 0  0.058006 0.065099 0  0.06984899999999999 0.937917 0  0.93633 0.939704 0  0.934625 0.053613 0  0.343397 0.333452 0  0.473272 0.639943 0  0.433266 0.638072 0  0.415174 0.58269 0  0.533435 0.545042 0  0.390848 0.340652 0  0.53655 0.320242 0  0.127966 0.393775 0  0.83861 0.850455 0  0.635242 0.8551299999999999 0  0.852158 0.633441 0  0.653427 0.626848 0  0.861226 0.24292 0  0.166128 0.12976 0  0.216875 0.8698709999999999 0  0.458305 0.11179 0  0.84446 0.101633 0  0.202024 0.642528 0  0.644825 0.115855 0  0.671342 0.218358 0  0.251354 0.286186 0  0.262388 0.75153 0  0.063044 0.751571 0  0.068189 0.242962 0  0.435781 0.9053949999999999 0  0.934144 0.451133 0  0.568393 0.237622 0  0.814984 0.395506 0  0.752951 0.517227 0  0.456254 0.780699 0  0.073352 0.531116 0  0.337731 0.206071 0  0.363213 0.960371 0  0.330742 0.363592 0  0.516613 0.55705 0  0.369057 0.332992 0  0.500926 0.617309 0  0.498004 0.665534 0  0.412142 0.61178 0  0.454233 0.6366039999999999 0  0.422782 0.567496 0  0.541193 0.5214800000000001 0  0.439761 0.65557 0  0.5163 0.533672 0  0.414775 0.64562 0  0.40073 0.576135 0  0.430362 0.5880339999999999 0  0.385432 0.351492 0  0.400298 0.335397 0  0.398325 0.348194 0  0.528702 0.314885 0  0.540814 0.322334 0  0.534477 0.322953 0  0.619095 0.743583 0  0.885162 0.737972 0  0.08076 0.668849 0  0.90734 0.36634 0  0.09468699999999999 0.868937 0  0.759838 0.912152 0  0.901518 0.540898 0  0.747285 0.607479 0  0.229182 0.071641 0  0.06915399999999999 0.450091 0  0.244775 0.203309 0  0.076534 0.331755 0  0.897847 0.167826 0  0.578909 0.911415 0  0.07713299999999999 0.146341 0  0.477215 0.203448 0  0.922631 0.869341 0  0.517415 0.074785 0  0.297026 0.827793 0  0.7832710000000001 0.246505 0  0.74519 0.061079 0  0.36033 0.069068 0  0.210313 0.475228 0  0.859426 0.928758 0  0.5745479999999999 0.609182 0  0.243069 0.383398 0  0.283099 0.934598 0  0.417416 0.843141 0  0.643942 0.553164 0  0.112687 0.079336 0  0.281357 0.658386 0  0.765043 0.436177 0  0.611361 0.198486 0  0.234496 0.58911 0  0.206479 0.702638 0  0.679608 0.155818 0  0.62682 0.259978 0  0.690538 0.264164 0  0.448938 0.956308 0  0.808154 0.328403 0  0.379583 0.91913 0  0.308083 0.297769 0  0.312358 0.730249 0  0.563101 0.278576 0  0.435597 0.746198 0  0.385475 0.225229 0  0.572248 0.518034 0  0.357864 0.35422 0  0.497647 0.641694 0  0.458101 0.655768 0  0.360474 0.310727 0  0.467038 0.620139 0  0.47798 0.659909 0  0.41102 0.628072 0  0.48324 0.609015 0  0.427544 0.617941 0  0.388633 0.328253 0  0.405336 0.599404 0  0.408351 0.565178 0  0.42395 0.600985 0  0.431562 0.576523 0  0.424905 0.6551979999999999 0  0.398064 0.58782 0  0.427739 0.557934 0  0.5192909999999999 0.303443 0  0.53142 0.320293 0  0.5449000000000001 0.323642 0  0.537166 0.323513 0  0.153974 0.920841 0  0.9181859999999999 0.67343 0  0.759946 0.820588 0  0.5375259999999999 0.783091 0  0.816532 0.545843 0  0.813991 0.178083 0  0.836774 0.702023 0  0.149815 0.318856 0  0.662287 0.923338 0  0.680146 0.791192 0  0.708961 0.663172 0  0.9372779999999999 0.287318 0  0.574622 0.6881660000000001 0  0.5894740000000001 0.076262 0  0.502822 0.926683 0  0.222269 0.811068 0  0.380457 0.164786 0  0.15321 0.684154 0  0.458063 0.051413 0  0.161702 0.056026 0  0.199351 0.198818 0  0.298946 0.09553200000000001 0  0.902465 0.795949 0  0.121139 0.791477 0  0.906269 0.112287 0  0.056109 0.822332 0  0.512172 0.13237 0  0.940964 0.741805 0  0.888887 0.408777 0  0.354543 0.825964 0  0.808736 0.068638 0  0.068507 0.394071 0  0.719105 0.563843 0  0.247287 0.149664 0  0.293062 0.237128 0  0.240524 0.434997 0  0.141255 0.623289 0  0.945202 0.160621 0  0.502914 0.247629 0  0.144669 0.480811 0  0.665025 0.060817 0  0.728047 0.224344 0  0.861995 0.313312 0  0.200068 0.534235 0  0.253262 0.965623 0  0.893804 0.49307 0  0.604391 0.572456 0  0.947088 0.345347 0  0.439372 0.227307 0  0.629847 0.159823 0  0.273405 0.880181 0  0.302744 0.776823 0  0.781502 0.295365 0  0.275342 0.349602 0  0.7283849999999999 0.472798 0  0.229136 0.246478 0  0.807794 0.480346 0  0.709476 0.112786 0  0.275506 0.694991 0  0.771674 0.394419 0  0.449715 0.861802 0  0.419159 0.799696 0  0.674851 0.503139 0  0.280443 0.61016 0  0.572443 0.192538 0  0.393113 0.87525 0  0.405555 0.948428 0  0.330942 0.934103 0  0.540509 0.597101 0  0.312763 0.6689310000000001 0  0.254368 0.540179 0  0.595265 0.25915 0  0.606679 0.234099 0  0.657131 0.279138 0  0.722458 0.279478 0  0.333 0.308056 0  0.351529 0.246142 0  0.455714 0.7257940000000001 0  0.585239 0.295143 0  0.340062 0.72492 0  0.545593 0.293773 0  0.555449 0.545426 0  0.414311 0.737314 0  0.590854 0.502323 0  0.350507 0.368444 0  0.484423 0.625665 0  0.483899 0.674542 0  0.378137 0.317274 0  0.446416 0.646404 0  0.373532 0.347654 0  0.446876 0.619769 0  0.466106 0.666068 0  0.437545 0.609254 0  0.434988 0.565726 0  0.41462 0.656829 0  0.418803 0.556961 0  0.398425 0.327446 0  0.517803 0.310421 0  0.549516 0.322918 0  0.57701 0.842889 0  0.8291269999999999 0.773906 0  0.643235 0.684732 0  0.134281 0.207734 0  0.865997 0.055966 0  0.680959 0.723345 0  0.165229 0.8415550000000001 0  0.54558 0.959672 0  0.783726 0.656439 0  0.913315 0.595533 0  0.699439 0.860667 0  0.785839 0.125076 0  0.551673 0.037713 0  0.9200970000000001 0.223214 0  0.206406 0.299726 0  0.087064 0.596401 0  0.935644 0.394252 0  0.964557 0.252582 0  0.230124 0.928346 0  0.120579 0.271764 0  0.8572149999999999 0.524082 0  0.7670979999999999 0.5551469999999999 0  0.936094 0.507131 0  0.804064 0.59585 0  0.700565 0.608273 0  0.429773 0.174231 0  0.117746 0.727333 0  0.5389620000000001 0.730231 0  0.862761 0.359173 0  0.821444 0.284046 0  0.193552 0.35818 0  0.234923 0.505555 0  0.193209 0.421217 0  0.220144 0.755896 0  0.594015 0.131642 0  0.283813 0.195855 0  0.517519 0.213961 0  0.553509 0.639116 0  0.280391 0.378018 0  0.852183 0.436817 0  0.746983 0.197173 0  0.821806 0.221318 0  0.449853 0.828453 0  0.883758 0.453926 0  0.183484 0.589542 0  0.348384 0.129314 0  0.255254 0.838525 0  0.504849 0.798516 0  0.320344 0.863432 0  0.611669 0.525425 0  0.265864 0.804962 0  0.72056 0.521442 0  0.613372 0.6101220000000001 0  0.481262 0.881068 0  0.655778 0.191988 0  0.701921 0.196918 0  0.5658260000000001 0.5731810000000001 0  0.46914 0.240927 0  0.343219 0.173284 0  0.888786 0.278502 0  0.244113 0.6750930000000001 0  0.739546 0.417914 0  0.784023 0.355942 0  0.326805 0.265549 0  0.248616 0.6
[...]
<PointData  Vectors="f_21"> 
<DataArray  type="Float64"  Name="f_21"  NumberOfComponents="3" format="ascii">7.5225831373711152e-11 -1.8922848658708696e-11 0.0000000000000000e+00  2.4503902846445494e-11 -2.5549937007256320e-12 0.0000000000000000e+00  2.3624599861405788e-12 -9.8606915556861850e-14 0.0000000000000000e+00  4.8962985944488467e-13 -3.2836144349593052e-14 0.0000000000000000e+00  1.0330755695359589e-13 -9.0759873276812923e-15 0.0000000000000000e+00  9.2152072901558132e-15 -1.2909853858817936e-15 0.0000000000000000e+00  1.7898640358365277e-15 -4.4422457853988080e-16 0.0000000000000000e+00  3.3422988355607006e-17 4.0229365281830055e-17 0.0000000000000000e+00  2.9764052500562078e-18 3.8655471484553479e-18 0.0000000000000000e+00  1.7931563323280420e-18 3.2828527669047107e-18 0.0000000000000000e+00  3.8311488604763593e-19 2.5946139487829405e-18 0.0000000000000000e+00  -2.0430940769303411e-19 1.9080905283257213e-18 0.0000000000000000e+00  -8.7351658207226799e-19 2.8480213514649174e-19 0.0000000000000000e+00  -9.0692367595165741e-20 -5.3237651208876698e-19 0.0000000000000000e+00  8.6859695480249922e-21 -4.5631924756318045e-20 0.0000000000000000e+00  9.9103946352369161e-23 -2.3743980077502749e-21 0.0000000000000000e+00  -3.4977735950128699e-23 -7.9523777410182468e-23 0.0000000000000000e+00  5.2087673660206911e-23 2.5873907281595818e-22 0.0000000000000000e+00  2.5431222520444831e-22 2.2752101350598036e-21 0.0000000000000000e+00  4.9969834825314276e-22 1.5580979034428153e-20 0.0000000000000000e+00  -3.7703355881795786e-20 1.1706317679501440e-19 0.0000000000000000e+00  -1.4774614351954649e-19 2.1444971622769784e-19 0.0000000000000000e+00  -1.1182896999195942e-20 5.2559303030385350e-19 0.0000000000000000e+00  5.6390079112436425e-17 3.3948485132740292e-18 0.0000000000000000e+00  3.8432200724890329e-16 -8.0602898617594777e-17 0.0000000000000000e+00  1.0355271155404703e-15 -2.3293302181241953e-16 0.0000000000000000e+00  2.9988795836741792e-15 -6.8719585722709294e-16 0.0000000000000000e+00  7.1331433569547815e-15 -8.5230368296469143e-16 0.0000000000000000e+00  1.9121544573201563e-14 1.7527246986255719e-15 0.0000000000000000e+00  4.5625357598264582e-14 1.0198069209166840e-14 0.0000000000000000e+00  3.6018197893183069e-13 -9.0185228410079540e-14 0.0000000000000000e+00  6.0646359221797444e-13 -1.7609668208162139e-13 0.0000000000000000e+00  3.9402256637904206e-13 -1.2814264459353667e-13 0.0000000000000000e+00  1.4441868654127344e-13 -4.9931824047592680e-14 0.0000000000000000e+00  6.3901178617032788e-14 -2.0125022793314128e-14 0.0000000000000000e+00  3.8939183573772102e-14 -3.5932143412019218e-15 0.0000000000000000e+00  2.8433883071715869e-14 -6.9953242482400898e-16 0.0000000000000000e+00  1.8065718823933529e-14 2.4964293994909472e-15 0.0000000000000000e+00  4.5873998865272130e-15 4.2092609782777809e-15 0.0000000000000000e+00  1.9765637471329304e-15 3.0870501717505221e-15 0.0000000000000000e+00  2.7807198133655174e-16 1.7867812375165337e-15 0.0000000000000000e+00  -1.6296900735744267e-16 1.0539383700889117e-15 0.0000000000000000e+00  -2.3554477796470017e-16 6.8037914384933936e-16 0.0000000000000000e+00  -2.5995426890491240e-16 3.6565718011166979e-16 0.0000000000000000e+00  8.3563874576965464e-17 -3.1332484376001784e-16 0.0000000000000000e+00  2.2406061185132152e-15 -1.0042294982012491e-15 0.0000000000000000e+00  2.4221964253537998e-14 2.2510761296590123e-15 0.0000000000000000e+00  2.3666308515200455e-13 -2.4762229374318033e-14 0.0000000000000000e+00  1.0289330454275159e-12 -2.1702807179414447e-13 0.0000000000000000e+00  2.3967000692712340e-12 -5.2948761023192320e-13 0.0000000000000000e+00  5.2036479673649182e-12 -1.2360178956921619e-12 0.0000000000000000e+00  9.0163922775650279e-12 -2.4764686664615573e-12 0.0000000000000000e+00  2.1474259655877273e-11 -4.6014903521609518e-12 0.0000000000000000e+00  4.7380566235413676e-11 -3.4901532564331956e-12 0.0000000000000000e+00  2.0278873600969419e-10 1.0665062335651323e-11 0.0000000000000000e+00  1.0607294815635617e-09 1.0675854610086647e-10 0.0000000000000000e+00  5.4297271352056840e-09 7.4536003433081352e-10 0.0000000000000000e+00  2.4111648368145647e-08 2.3519709737535574e-10 0.0000000000000000e+00  8.0880816489148175e-08 5.8614839805142262e-10 0.0000000000000000e+00  1.8346841073901895e-07 -1.9705871864199619e-09 0.0000000000000000e+00  3.5913149339697414e-07 -1.8258538872028075e-08 0.0000000000000000e+00  5.7428902144987893e-07 -4.8237551962148461e-08 0.0000000000000000e+00  9.1099419127831707e-07 -9.0809860414616684e-08 0.0000000000000000e+00  1.4433668615553379e-06 -1.7611095874130726e-07 0.0000000000000000e+00  1.8767124395586916e-06 -1.0569424695126407e-07 0.0000000000000000e+00  3.1513909387332137e-06 2.7987509084346017e-08 0.0000000000000000e+00  4.2183172752983360e-06 -2.0213201690151484e-09 0.0000000000000000e+00  3.9653758682837767e-06 -1.2216547940404726e-07 0.0000000000000000e+00  2.3513744399622360e-06 -1.3006994936383916e-07 0.0000000000000000e+00  7.7144786092354470e-07 -1.6449703720043253e-07 0.0000000000000000e+00  3.0985746827591598e-07 -1.0039333915983781e-07 0.0000000000000000e+00  1.0781469343107999e-07 -3.1088451203690177e-08 0.0000000000000000e+00  2.7144526578294874e-08 -7.1856837326967149e-09 0.0000000000000000e+00  2.9643403550715389e-09 -9.7306332771089625e-10 0.0000000000000000e+00  4.9192093063392485e-10 -2.2025155573460849e-10 0.0000000000000000e+00  1.9508098236670491e-10 -8.3346083479488189e-11 0.0000000000000000e+00  8.4354999854456914e-11 -2.3846831094225588e-11 0.0000000000000000e+00  2.4691409238989534e-02 -6.8337874779789646e-03 0.0000000000000000e+00  2.4844448696542797e-02 6.9232854874865532e-03 0.0000000000000000e+00  0.0000000000000000e+00 0.0000000000000000e+00 0.0000000000000000e+00  0.0000000000000000e+00 0.0000000000000000e+00 0.0000000000000000e+00  6.8411094802207666e-11 -1.4813279201902630e-11 0.0000000000000000e+00  5.8868771106895563e-11 -1.0964462628685083e-11 0.0000000000000000e+00  4.7378935480467337e-11 -7.3587370443682900e-12 0.0000000000000000e+00  3.5793052210552457e-11 -4.6118586938285833e-12 0.0000000000000000e+00  1.7270936536031994e-11 -1.5483049435223044e-12 0.0000000000000000e+00  1.0534315835489153e-11 -7.4027956544029326e-13 0.0000000000000000e+00  5.8485671005664688e-12 -3.2653690183578607e-13 0.0000000000000000e+00  1.1517828873850896e-12 -6.5449687342644285e-14 0.0000000000000000e+00  4.3562541030460781e-14 -8.0280693302868381e-15 0.0000000000000000e+00  1.9897755818895850e-14 -2.5047767677682409e-15 0.0000000000000000e+00  5.2184077137946842e-16 1.3578070713721451e-16 0.0000000000000000e+00  1.2527926419716905e-16 1.0791478334470463e-16 0.0000000000000000e+00  9.0849319068103928e-18 1.2884643340208234e-17 0.0000000000000000e+00  4.5927083881433970e-18 5.8473290112328949e-18 0.0000000000000000e+00  1.1329673271952526e-18 2.9407183392117082e-18 0.0000000000000000e+00  -4.1324584246658465e-19 1.4933704950206877e-18 0.0000000000000000e+00  -6.8290888529509977e-19 1.0355805399429001e-18 0.0000000000000000e+00  -7.2593961982954865e-19 -4.5270926242322807e-19 0.0000000000000000e+00  -4.1089731679722491e-19 -6.6060300569835529e-19 0.0000000000000000e+00  5.4401478425422199e-21 -2.1293987004272132e-19 0.0000000000000000e+00  2.3580175001828258e-25 5.0642109565921495e-23 0.0000000000000000e+00  -5.8312862577699184e-21 5.2882399076992992e-20 0.0000000000000000e+00  1.9820922132968389e-18 5.2170058302522523e-19 0.0000000000000000e+00  1.3592415619127265e-17 -8.9648248528614452e-19 0.0000000000000000e+00  1.8701426407091465e-15 -4.4662697145370891e-16 0.0000000000000000e+00  4.3119686874095519e-15 -8.2214078774446488e-16 0.0000000000000000e+00  1.2300372530297614e-13 1.1544949354120378e-14 0.0000000000000000e+00  2.6397778500224962e-13 -9.0615832100497777e-14 0.0000000000000000e+00  4.6247785749837016e-14 -9.8677594348025593e-15 0.0000000000000000e+00  2.2748813298557767e-14 5.4822669957496533e-16 0.0000000000000000e+00  1.1239451994914938e-14 4.0796468013759719e-15 0.0000000000000000e+00  7.3463438607751729e-15 4.3160742238212761e-15 0.0000000000000000e+00  1.0494341424186998e-15 2.3862127574805531e-15 0.0000000000000000e+00  5.6009450239521479e-16 -4.9104247914570657e-16 0.0000000000000000e+00  5.0160920823533168e-13 -8.0439094928509904e-14 0.0000000000000000e+00  1.4703986718658224e-11 -3.6305670416434057e-12 0.0000000000000000e+00  5.1314768887081159e-10 5.3582987247402473e-11 0.0000000000000000e+00  1.2631389105381702e-08 1.0185444043381893e-09 0.0000000000000000e+00  2.5376890517554041e-07 -7.7422448125564092e-09 0.0000000000000000e+00  7.5554549394737392e-07 -6.8928481698673067e-08 0.0000000000000000e+00  1.1625828405036497e-06 -1.3092809537133834e-07 0.0000000000000000e+00  2.3964548593477622e-06 -2.5688291368680451e-10 0.0000000000000000e+00  4.4235336461358501e-06 -3.9700758089396679e-08 0.0000000000000000e+00  1.4400091094301084e-06 -2.0359186892525666e-07 0.0000000000000000e+00  8.7398729546242763e-09 -2.7972150607053190e-09 0.0000000000000000e+00  1.0413973291437225e-09 -4.2758336669265631e-10 0.0000000000000000e+00  2.7301323876806294e-10 -1.2332044222777688e-10 0.0000000000000000e+00  1.4820766984819753e-10 -5.2897384332770510e-11 0.0000000000000000e+00  1.1678400864614520e-10 -3.7360812301521800e-11 0.0000000000000000e+00  9.6881448116595736e-11 -2.8818741517202252e-11 0.0000000000000000e+00  2.2834792805565475e-02 -1.2001176882688725e-04 0.0000000000000000e+00  2.2354025766489972e-02 -8.3911714165456783e-05 0.0000000000000000e+00  2.2875681402194148e-02 1.7106065991400715e-04 0.0000000000000000e+00  2.2331551464777027e-02 -1.6633358691464496e-04 0.0000000000000000e+00  2.2678334889594656e-02 9.8799547882975574e-05 0.0000000000000000e+00  2.2585111486644532e-02 -8.4348205491211584e-05 0.0000000000000000e+00  2.2687818622612221e-02 1.0890723610374605e-05 0.0000000000000000e+00  2.2603292662123246e-02 -6.3372687920390915e-05 0.0000000000000000e+00  2.2547812394042820e-02 2.2628403589131530e-04 0.0000000000000000e+00  1.9569686493319466e-03 5.8123135654842596e-04 0.0000000000000000e+00  -9.0450987829181132e-08 5.5042943739214056e-06 0.0000000000000000e+00  -2.1163982091351379e-08 -9.2199363966022353e-09 0.0000000000000000e+00  -5.9790758554053456e-10 -1.5176192844061660e-09 0.0000000000000000e+00  2.2994180120648137e-12 -4.9472077673488673e-11 0.0000000000000000e+00  1.9156410348919195e-13 -9.2398312656115462e-13 0.0000000000000000e+00  1.0059166453210867e-15 -1.1868347586721726e-14 0.0000000000000000e+00  2.9603010735227833e-17 -1.6920195190695169e-16 0.0000000000000000e+00  4.9663841772271971e-19 -2.4952391325566850e-18 0.0000000000000000e+00  3.1069090909823417e-19 -3.0805609510497990e-19 0.0000000000000000e+00  4.6716779427502303e-17 4.7218084363369184e-18 0.0000000000000000e+00  3.3768260120420118e-15 5.7293044158721577e-15 0.0000000000000000e+00  7.9337540179331971e-14 4.2825396154395676e-13 0.0000000000000000e+00  -6.3949448363396136e-12 1.4552827850793883e-11 0.0000000000000000e+00  -5.7139665115295079e-10 -3.0110353683421433e-10 0.0000000000000000e+00  -2.5917928635013692e-09 -3.9593994310995593e-08 0.0000000000000000e+00  5.9063592309317037e-06 -3.5671937070838186e-06 0.0000000000000000e+00  1.9777641871161745e-03 -5.8959027066155629e-04 0.0000000000000000e+00  0.0000000000000000e+00 0.0000000000000000e+00 0.0000000000000000e+00  0.0000000000000000e+00 0.0000000000000000e+00 0.0000000000000000e+00  0.0000000000000000e+00 0.0000000000000000e+00 0.0000000000000000e+00  0.0000000000000000e+00 0.0000000000000000e+00 0.0000000000000000e+00  0.0000000000000000e+00 0.0000000000000000e+00 0.0000000000000000e+00  0.0000000000000000e+00 0.0000000000000000e+00 0.0000000000000000e+00  0.0000000000000000e+00 0.0000000000000000e+00 0.0000000000000000e+00  0.0000000000000000e+00 0.0000000000000000e+00 0.0000000000000000e+00  0.0000000000000000e+00 0.0000000000000000e+00 0.0000000000000000e+00  9.3130282800490196e-11 6.2261614522493265e-14 0.0000000000000000e+00  6.1661388714820666e-07 1.1816468543258869e-07 0.0000000000000000e+00  1.5649950174448243e-21 7.3075793820639598e-22 0.0000000000000000e+00  8.8147487069169173e-20 -1.0398122235595439e-20 0.0000000000000000e+00  7.2917715127484733e-07 6.4415521336555223e-08 0.0000000000000000e+00  6.1437184157335697e-11 1.2336257482813458e-11 0.0000000000000000e+00  2.4274624393891660e-04 1.0413844414159540e-05 0.0000000000000000e+00  3.4150523448795463e-14 -5.7781304402875581e-14 0.0000000000000000e+00  4.0301458737950828e-25 2.1650403840287550e-25 0.0000000000000000e+00  1.0475906727588734e-16 1.9183477001594836e-17 0.0000000000000000e+00  2.3046686465078725e-16 1.9124131269398882e-16 0.0000000000000000e+00  1.7517594560928535e-20 -1.7361209200210421e-20 0.0000000000000000e+00  1.1143667386603544e-20 3.0100255547186762e-20 0.0000000000000000e+00  5.9021973393780366e-03 -3.4157874324532519e-04 0.0000000000000000e+00  5.5570864182225045e-03 3.8855746577313570e-04 0.0000000000000000e+00  -2.7266953245650035e-18 -9.5790645476220982e-18 0.0000000000000000e+00  5.0498472926201684e-13 -1.4634507826940240e-13 0.0000000000000000e+00  6.9061026415721597e-14 -1.6975551908733145e-14 0.0000000000000000e+00  3.4525225108668176e-15 3.8103226818528484e-15 0.0000000000000000e+00  3.4016841818611630e-11 -3.1344014239443815e-12 0.0000000000000000e+00  6.2301347682968326e-19 2.8415524414701563e-18 0.0000000000000000e+00  6.7314938387075399e-11 -1.7230179987500117e-11 0.0000000000000000e+00  1.4096392256315720e-22 -1.2482415472041022e-22 0.0000000000000000e+00  5.5990414809549615e-05 -1.1349902967796471e-06 0.0000000000000000e+00  -1.5537372744209820e-10 -1.7698594552221417e-10 0.0000000000000000e+00  1.4999823101087098e-04 -3.2235983889208223e-05 0.0000000000000000e+00  6.3485759208320383e-09 -1.7561611859693941e-09 0.0000000000000000e+00  4.1962812934177418e-04 -3.8765206265361152e-06 0.0000000000000000e+00  -3.6289411549673056e-19 -6.1508494203152696e-19 0.0000000000000000e+00  6.3830820873358569e-19 1.0225824030171949e-18 0.0000000000000000e+00  1.3207384483672621e-13 2.6280994705406566e-14 0.0000000000000000e+00  1.6363785333723424e-04 1.6037440201178005e-05 0.0000000000000000e+00  2.4372346659868894e-22 2.4293053711633216e-22 0.0000000000000000e+00  4.2703786705767748e-09 1.1964214935347242e-09 0.0000000000000000e+00  4.6905817448883371e-08 4.7895738856421472e-09 0.0000000000000000e+00  5.5023373810964754e-18 -2.0941755119538620e-18 0.0000000000000000e+00  3.3252691311101076e-19 1.4385452188120744e-19 0.0000000000000000e+00  2.3479961909202221e-23 1.7568873228214085e-23 0.0000000000000000e+00  2.1557369875030193e-22 -5.0481027702961487e-23 0.0000000000000000e+00  -9.8494891848263528e-15 -1.6924777595079001e-15 0.0000000000000000e+00  5.6410133637289344e-03 1.1257839740758623e-05 0.0000000000000000e+00  2.6341530866283747e-10 2.0082317840923898e-11 0.0000000000000000e+00  5.7421621426163137e-05 -1.1295502363265527e-06 0.0000000000000000e+00  2.9475236605688025e-06 -1.8481625545447950e-07 0.0000000000000000e+00  3.1105949248274233e-14 -7.3839092692733398e-15 0.0000000000000000e+00  -3.1065645171510663e-26 -3.7491337885316268e-27 0.0000000000000000e+00  1.0129836293179454e-15 1.4024391585049453e-16 0.0000000000000000e+00  1.2267002010211335e-14 1.7998851131128219e-14 0.0000000000000000e+00  -3.4317808648471898e-19 -1.5546555881020143e-18 0.0000000000000000e+00  1.3692381931012399e-11 -1.3777866083360938e-12 0.0000000000000000e+00  -1.9659543024730377e-18 2.9710185307704753e-18 0.0000000000000000e+00  2.9699695570582189e-12 -6.3817316127765476e-13 0.0000000000000000e+00  1.2298813762047435e-12 -3.6360719457495110e-13 0.0000000000000000e+00  2.0464374242007585e-14 3.8538637459829767e-15 0.0000000000000000e+00  2.0518849263084439e-13 -6.2143163558361194e-14 0.0000000000000000e+00  4.6950595179954521e-16 1.4642654254338247e-15 0.0000000000000000e+00  6.2574907831581400e-11 -4.6048884344921109e-12 0.0000000000000000e+00  8.4572526566205141e-14 -2.6753051320795950e-14 0.0000000000000000e+00  1.8308931833279104e-11 -2.1459093304845077e-12 0.0000000000000000e+00  3.0738210495913019e-14 -5.4588074007299154e-15 0.0000000000000000e+00  1.9614390756737175e-15 2.2621385255989639e-15 0.0000000000000000e+00  6.9247637098511769e-15 4.6455033153234587e-15 0.0000000000000000e+00  -2.1649656490098115e-19 1.4527487323653331e-18 0.0000000000000000e+00  1.6908754806164843e-18 3.1489936842480541e-18 0.0000000000000000e+00  3.8979453561159506e-19 2.0663473117131406e-18 0.0000000000000000e+00  4.4420126275741880e-11 -8.9773199480586507e-12 0.0000000000000000e+00  8.2539796369056755e-11 -2.2894761779212409e-11 0.0000000000000000e+00  6.7685216997035164e-11 -1.6833510604671214e-11 0.0000000000000000e+00  3.5149439266098033e-10 8.2661669965214470e-12 0.0000000000000000e+00  1.0067981893100389e-03 4.6308367424204259e-05 0.0000000000000000e+00  1.4444574604994750e-24 8.2883382312926753e-25 0.0000000000000000e+00  2.5638886670463147e-03 4.1633767681878691e-05 0.0000000000000000e+00  1.4507576865900788e-20 3.8671401521059781e-21 0.0000000000000000e+00  -2.2131774956093927e-07 -3.3731348530293846e-07 0.0000000000000000e+00  2.0472020252701967e-03 -3.3080445071575394e-05 0.0000000000000000e+00  1.1268357636954102e-06 -2.1851732758949564e-07 0.0000000000000000e+00  -4.0108034162793886e-17 -7.1976847678152958e-17 0.0000000000000000e+00  5.4325766153887952e-25 -3.2650013072796882e-25 0.0000000000000000e+00  6.7424547108232795e-18 3.3745751108351467e-19 0.0000000000000000e+00  7.2048472465804292e-23 -2.7320740600543829e-23 0.0000000000000000e+00  1.7694772321208338e-03 -3.2732568995700895e-05 0.0000000000000000e+00  -8.0105182249065872e-11 -4.8947226753644603e-11 0.0000000000000000e+00  -1.4146637819021359e-21 -6.9680427235828483e-21 0.0000000000000000e+00  1.5991337451593504e-12 2.2455747781063728e-13 0.0000000000000000e+00  3.8876958502442119e-03 -1.2015481720023699e-05 0.0000000000000000e+00  1.8361532487390995e-12 -5.2739137973463029e-13 0.0000000000000000e+00  5.6774277077485940e-18 2.3438276310872956e-18 0.0000000000000000e+00  1.1876643689385232e-05 7.9214763561918384e-07 0.0000000000000000e+00  5.8813768917764298e-07 2.3347693418214596e-07 0.0000000000000000e+00  8.7224490108732838e-15 -3.8523475135319299e-15 0.0000000000000000e+00  1.7407101382064860e-22 -2.5297500126786538e-22 0.0000000000000000e+00  2.0901421912685933e-04 -4.5225029273479980e-06 0.0000000000000000e+00  1.4904273395485142e-10 -4.0288797710138680e-11 0.0000000000000000e+00  5.1769349389840818e-20 -7.4604626115044877e-20 0.0000000000000000e+00  8.1113460014137010e-17 4.8611522620041024e-18 0.0000000000000000e+00  1.8158216675786830e-15 -2.4630171328542464e-16 0.0000000000000000e+00  8.9585965226815784e-09 -1.3408445167589990e-09 0.0000000000000000e+00  1.5536310871707102e-19 -4.5100738682259194e-20 0.0000000000000000e+00  5.9375786687119739e-21 1.4328672533531924e-20 0.0000000000000000e+00  5.3144316361187670e-06 1.3407449248929275e-08 0.0000000000000000e+00  1.8522592439951371e-09 2.0775661022083544e-10 0.0000000000000000e+00  4.1579768182257791e-23 6.9977392858272766e-23 0.0000000000000000e+00  3.5219427299855983e-21 2.3810306426627414e-21 0.0000000000000000e+00  4.3928661586248619e-08 8.1965632809212052e-09 0.0000000000000000e+00  5.6010884287617102e-09 2.0375000171845311e-10 0.0000000000000000e+00  1.5104949949732388e-07 4.7441595467258824e-09 0.0000000000000000e+00  8.8313370217425821e-14 -1.2519081448956512e-13 0.0000000000000000e+00  4.1232306633613230e-05 -8.7711162731540444e-07 0.0000000000000000e+00  1.7196822905370204e-15 1.7373979628133335e-15 0.0000000000000000e+00  5.6224539882872485e-17 -5.0575595456586589e-17 0.0000000000000000e+00  1.2686437288566490e-18 1.5917141269702381e-18 0.0000000000000000e+00  2.2091622544605591e-10 -6.3306453838206365e-12 0.0000000000000000e+00  1.5410605498755757e-14 -2.3677554272296196e-15 0.0000000000000000e+00  1.4653199594571707e-14 2.0370942645691425e-15 0.0000000000000000e+00  2.9698223810974019e-10 -1.67415