<?xml version="1.0"?>
<VTKFile type="UnstructuredGrid"  version="0.1"  >
<UnstructuredGrid>
<Piece  NumberOfPoints="2868" NumberOfCells="5400">
<Points>
<DataArray  type="Float64"  NumberOfComponents="3"  format="ascii">0.534923 0.326073 0  0.510642 0.314196 0  0.466125 0.293082 0  0.436448 0.281205 0  0.409468 0.275927 0  0.368998 0.270648 0  0.35281 0.275927 0  0.381139 0.302319 0  0.405421 0.326073 0  0.410817 0.33531 0  0.408119 0.349826 0  0.400025 0.357744 0  0.375743 0.368301 0  0.329878 0.392055 0  0.297502 0.432963 0  0.282663 0.476511 0  0.285361 0.524018 0  0.298851 0.572845 0  0.317737 0.6045160000000001 0  0.337972 0.6361869999999999 0  0.360904 0.674457 0  0.368998 0.69953 0  0.359555 0.7219640000000001 0  0.360904 0.757594 0  0.370347 0.766831 0  0.381139 0.762872 0  0.390582 0.741758 0  0.404072 0.720644 0  0.424307 0.707448 0  0.447239 0.702169 0  0.480964 0.704808 0  0.479615 0.6889729999999999 0  0.468823 0.675776 0  0.447239 0.6691780000000001 0  0.428354 0.6691780000000001 0  0.410817 0.6639 0  0.404072 0.653343 0  0.395978 0.628269 0  0.387884 0.59132 0  0.389233 0.576804 0  0.397327 0.557009 0  0.410817 0.547772 0  0.424307 0.546452 0  0.437797 0.55305 0  0.44589 0.5662469999999999 0  0.441843 0.582082 0  0.439145 0.5979179999999999 0  0.449937 0.609795 0  0.468823 0.603196 0  0.479615 0.59 0  0.489058 0.570205 0  0.494454 0.546452 0  0.505246 0.522699 0  0.522783 0.509502 0  0.55246 0.494986 0  0.586185 0.484429 0  0.615863 0.48047 0  0.64554 0.473872 0  0.6671240000000001 0.461995 0  0.683312 0.451438 0  0.696802 0.435603 0  0.703547 0.417128 0  0.7116400000000001 0.393374 0  0.7183850000000001 0.37226 0  0.7251300000000001 0.364342 0  0.739969 0.353785 0  0.7453650000000001 0.344548 0  0.7453650000000001 0.327393 0  0.737271 0.318155 0  0.7183850000000001 0.316835 0  0.7008490000000001 0.319475 0  0.677916 0.318155 0  0.650936 0.316835 0  0.610467 0.318155 0  0.57944 0.324753 0  0.559205 0.328712 0  0.5389699999999999 0.326073 0  1 1 0  1 0 0  0 0 0  0 1 0  0.532238 0.32476 0  0.528748 0.323052 0  0.52421 0.320833 0  0.518311 0.317947 0  0.503447 0.310783 0  0.494093 0.306347 0  0.481933 0.30058 0  0.452151 0.28749 0  0.392327 0.273691 0  0.379141 0.271971 0  0.360474 0.283066 0  0.369797 0.291752 0  0.391424 0.31238 0  0.399335 0.32012 0  0.40958 0.341964 0  0.393939 0.36039 0  0.386028 0.36383 0  0.364248 0.374254 0  0.349304 0.381994 0  0.315801 0.409841 0  0.292986 0.551616 0  0.350934 0.657818 0  0.360127 0.737055 0  0.360566 0.748664 0  0.385245 0.753692 0  0.396447 0.732578 0  0.466301 0.703661 0  0.459439 0.672908 0  0.418442 0.666195 0  0.400553 0.642441 0  0.39255 0.612619 0  0.389913 0.60058 0  0.392752 0.568197 0  0.444131 0.573132 0  0.458149 0.606926 0  0.5005540000000001 0.533026 0  0.571522 0.489019 0  0.632637 0.476741 0  0.689177 0.444553 0  0.708121 0.403702 0  0.715453 0.38144 0  0.732406 0.359166 0  0.7453650000000001 0.337089 0  0.72906 0.317581 0  0.629879 0.317522 0  0.59293 0.321884 0  0.568003 0.326991 0  0.55202 0.327775 0  0.546493 0.327054 0  0.542241 0.326499 0  1 0.9 0  1 0.8 0  1 0.7 0  1 0.6 0  1 0.5 0  1 0.4 0  1 0.3 0  1 0.2 0  1 0.1 0  0.9 0 0  0.8 0 0  0.7 0 0  0.6 0 0  0.5 0 0  0.4 0 0  0.3 0 0  0.2 0 0  0.1 0 0  0.1 1 0  0.2 1 0  0.3 1 0  0.4 1 0  0.5 1 0  0.6 1 0  0.7 1 0  0.8 1 0  0.9 1 0  0 0.1 0  0 0.2 0  0 0.3 0  0 0.4 0  0 0.5 0  0 0.6 0  0 0.7 0  0 0.8 0  0 0.9 0  0.535686 0.5031910000000001 0  0.753987 0.733359 0  0.167145 0.741436 0  0.173378 0.257204 0  0.733497 0.159862 0  0.554096 0.15788 0  0.849187 0.479053 0  0.488793 0.838452 0  0.138507 0.5592 0  0.30686 0.154944 0  0.348904 0.890523 0  0.058006 0.065099 0  0.06984899999999999 0.937917 0  0.93633 0.939704 0  0.934625 0.053613 0  0.343397 0.333452 0  0.473272 0.639943 0  0.433266 0.638072 0  0.415174 0.58269 0  0.533435 0.545042 0  0.390848 0.340652 0  0.53655 0.320242 0  0.127966 0.393775 0  0.83861 0.850455 0  0.635242 0.8551299999999999 0  0.852158 0.633441 0  0.653427 0.626848 0  0.861226 0.24292 0  0.166128 0.12976 0  0.216875 0.8698709999999999 0  0.458305 0.11179 0  0.84446 0.101633 0  0.202024 0.642528 0  0.644825 0.115855 0  0.671342 0.218358 0  0.251354 0.286186 0  0.262388 0.75153 0  0.063044 0.751571 0  0.068189 0.242962 0  0.435781 0.9053949999999999 0  0.934144 0.451133 0  0.568393 0.237622 0  0.814984 0.395506 0  0.752951 0.517227 0  0.456254 0.780699 0  0.073352 0.531116 0  0.337731 0.206071 0  0.363213 0.960371 0  0.330742 0.363592 0  0.516613 0.55705 0  0.369057 0.332992 0  0.500926 0.617309 0  0.498004 0.665534 0  0.412142 0.61178 0  0.454233 0.6366039999999999 0  0.422782 0.567496 0  0.541193 0.5214800000000001 0  0.439761 0.65557 0  0.5163 0.533672 0  0.414775 0.64562 0  0.40073 0.576135 0  0.430362 0.5880339999999999 0  0.385432 0.351492 0  0.400298 0.335397 0  0.398325 0.348194 0  0.528702 0.314885 0  0.540814 0.322334 0  0.534477 0.322953 0  0.619095 0.743583 0  0.885162 0.737972 0  0.08076 0.668849 0  0.90734 0.36634 0  0.09468699999999999 0.868937 0  0.759838 0.912152 0  0.901518 0.540898 0  0.747285 0.607479 0  0.229182 0.071641 0  0.06915399999999999 0.450091 0  0.244775 0.203309 0  0.076534 0.331755 0  0.897847 0.167826 0  0.578909 0.911415 0  0.07713299999999999 0.146341 0  0.477215 0.203448 0  0.922631 0.869341 0  0.517415 0.074785 0  0.297026 0.827793 0  0.7832710000000001 0.246505 0  0.74519 0.061079 0  0.36033 0.069068 0  0.210313 0.475228 0  0.859426 0.928758 0  0.5745479999999999 0.609182 0  0.243069 0.383398 0  0.283099 0.934598 0  0.417416 0.843141 0  0.643942 0.553164 0  0.112687 0.079336 0  0.281357 0.658386 0  0.765043 0.436177 0  0.611361 0.198486 0  0.234496 0.58911 0  0.206479 0.702638 0  0.679608 0.155818 0  0.62682 0.259978 0  0.690538 0.264164 0  0.448938 0.956308 0  0.808154 0.328403 0  0.379583 0.91913 0  0.308083 0.297769 0  0.312358 0.730249 0  0.563101 0.278576 0  0.435597 0.746198 0  0.385475 0.225229 0  0.572248 0.518034 0  0.357864 0.35422 0  0.497647 0.641694 0  0.458101 0.655768 0  0.360474 0.310727 0  0.467038 0.620139 0  0.47798 0.659909 0  0.41102 0.628072 0  0.48324 0.609015 0  0.427544 0.617941 0  0.388633 0.328253 0  0.405336 0.599404 0  0.408351 0.565178 0  0.42395 0.600985 0  0.431562 0.576523 0  0.424905 0.6551979999999999 0  0.398064 0.58782 0  0.427739 0.557934 0  0.5192909999999999 0.303443 0  0.53142 0.320293 0  0.5449000000000001 0.323642 0  0.537166 0.323513 0  0.153974 0.920841 0  0.9181859999999999 0.67343 0  0.759946 0.820588 0  0.5375259999999999 0.783091 0  0.816532 0.545843 0  0.813991 0.178083 0  0.836774 0.702023 0  0.149815 0.318856 0  0.662287 0.923338 0  0.680146 0.791192 0  0.708961 0.663172 0  0.9372779999999999 0.287318 0  0.574622 0.6881660000000001 0  0.5894740000000001 0.076262 0  0.502822 0.926683 0  0.222269 0.811068 0  0.380457 0.164786 0  0.15321 0.684154 0  0.458063 0.051413 0  0.161702 0.056026 0  0.199351 0.198818 0  0.298946 0.09553200000000001 0  0.902465 0.795949 0  0.121139 0.791477 0  0.906269 0.112287 0  0.056109 0.822332 0  0.512172 0.13237 0  0.940964 0.741805 0  0.888887 0.408777 0  0.354543 0.825964 0  0.808736 0.068638 0  0.068507 0.394071 0  0.719105 0.563843 0  0.247287 0.149664 0  0.293062 0.237128 0  0.240524 0.434997 0  0.141255 0.623289 0  0.945202 0.160621 0  0.502914 0.247629 0  0.144669 0.480811 0  0.665025 0.060817 0  0.728047 0.224344 0  0.861995 0.313312 0  0.200068 0.534235 0  0.253262 0.965623 0  0.893804 0.49307 0  0.604391 0.572456 0  0.947088 0.345347 0  0.439372 0.227307 0  0.629847 0.159823 0  0.273405 0.880181 0  0.302744 0.776823 0  0.781502 0.295365 0  0.275342 0.349602 0  0.7283849999999999 0.472798 0  0.229136 0.246478 0  0.807794 0.480346 0  0.709476 0.112786 0  0.275506 0.694991 0  0.771674 0.394419 0  0.449715 0.861802 0  0.419159 0.799696 0  0.674851 0.503139 0  0.280443 0.61016 0  0.572443 0.192538 0  0.393113 0.87525 0  0.405555 0.948428 0  0.330942 0.934103 0  0.540509 0.597101 0  0.312763 0.6689310000000001 0  0.254368 0.540179 0  0.595265 0.25915 0  0.606679 0.234099 0  0.657131 0.279138 0  0.722458 0.279478 0  0.333 0.308056 0  0.351529 0.246142 0  0.455714 0.7257940000000001 0  0.585239 0.295143 0  0.340062 0.72492 0  0.545593 0.293773 0  0.555449 0.545426 0  0.414311 0.737314 0  0.590854 0.502323 0  0.350507 0.368444 0  0.484423 0.625665 0  0.483899 0.674542 0  0.378137 0.317274 0  0.446416 0.646404 0  0.373532 0.347654 0  0.446876 0.619769 0  0.466106 0.666068 0  0.437545 0.609254 0  0.434988 0.565726 0  0.41462 0.656829 0  0.418803 0.556961 0  0.398425 0.327446 0  0.517803 0.310421 0  0.549516 0.322918 0  0.57701 0.842889 0  0.8291269999999999 0.773906 0  0.643235 0.684732 0  0.134281 0.207734 0  0.865997 0.055966 0  0.680959 0.723345 0  0.165229 0.8415550000000001 0  0.54558 0.959672 0  0.783726 0.656439 0  0.913315 0.595533 0  0.699439 0.860667 0  0.785839 0.125076 0  0.551673 0.037713 0  0.9200970000000001 0.223214 0  0.206406 0.299726 0  0.087064 0.596401 0  0.935644 0.394252 0  0.964557 0.252582 0  0.230124 0.928346 0  0.120579 0.271764 0  0.8572149999999999 0.524082 0  0.7670979999999999 0.5551469999999999 0  0.936094 0.507131 0  0.804064 0.59585 0  0.700565 0.608273 0  0.429773 0.174231 0  0.117746 0.727333 0  0.5389620000000001 0.730231 0  0.862761 0.359173 0  0.821444 0.284046 0  0.193552 0.35818 0  0.234923 0.505555 0  0.193209 0.421217 0  0.220144 0.755896 0  0.594015 0.131642 0  0.283813 0.195855 0  0.517519 0.213961 0  0.553509 0.639116 0  0.280391 0.378018 0  0.852183 0.436817 0  0.746983 0.197173 0  0.821806 0.221318 0  0.449853 0.828453 0  0.883758 0.453926 0  0.183484 0.589542 0  0.348384 0.129314 0  0.255254 0.838525 0  0.504849 0.798516 0  0.320344 0.863432 0  0.611669 0.525425 0  0.265864 0.804962 0  0.72056 0.521442 0  0.613372 0.6101220000000001 0  0.481262 0.881068 0  0.655778 0.191988 0  0.701921 0.196918 0  0.5658260000000001 0.5731810000000001 0  0.46914 0.240927 0  0.343219 0.173284 0  0.888786 0.278502 0  0.244113 0.6750930000000001 0  0.739546 0.417914 0  0.784023 0.355942 0  0.326805 0.265549 0  0.248616 0.6
[...]
<PointData  Vectors="f_21"> 
<DataArray  type="Float64"  Name="f_21"  NumberOfComponents="3" format="ascii">1.4579807415277539e+00 5.8740321392272732e-01 0.0000000000000000e+00  1.4024019524591338e+00 6.0270495214965902e-01 0.0000000000000000e+00  1.2298143161998634e+00 6.1133966230038650e-01 0.0000000000000000e+00  1.0799767270846892e+00 5.9588623443785571e-01 0.0000000000000000e+00  9.3688373442005424e-01 5.6147816954618346e-01 0.0000000000000000e+00  7.0005567043402961e-01 4.9424139641673226e-01 0.0000000000000000e+00  5.5880006345057842e-01 4.2837571011606457e-01 0.0000000000000000e+00  4.0096028958588631e-01 5.1619686746683124e-01 0.0000000000000000e+00  3.1305572666249676e-01 5.9850469431928677e-01 0.0000000000000000e+00  2.7887621202374507e-01 6.1853078451145782e-01 0.0000000000000000e+00  2.2446406560499468e-01 6.0852274573949183e-01 0.0000000000000000e+00  1.9437544299469817e-01 5.7791183921396239e-01 0.0000000000000000e+00  1.5475369259201571e-01 4.8236440900444710e-01 0.0000000000000000e+00  9.1411373250322461e-02 2.8563047624171717e-01 0.0000000000000000e+00  3.3351608919335966e-02 1.3747120217583544e-01 0.0000000000000000e+00  2.7947440344798895e-03 2.8859249100636173e-02 0.0000000000000000e+00  -3.5996177062819876e-03 -7.6127194294812489e-02 0.0000000000000000e+00  1.6687627443816109e-02 -1.9733400036501042e-01 0.0000000000000000e+00  5.7204448354102551e-02 -3.0802022885152008e-01 0.0000000000000000e+00  1.2558534685672920e-01 -4.2659899871213719e-01 0.0000000000000000e+00  2.5286139382338912e-01 -5.7022219785720951e-01 0.0000000000000000e+00  3.5883170154062138e-01 -6.2658343442512954e-01 0.0000000000000000e+00  4.6133833606079144e-01 -6.1610741100512079e-01 0.0000000000000000e+00  7.7671790384405015e-01 -6.9345263997489115e-01 0.0000000000000000e+00  1.0357092102148853e+00 -7.8302943205554520e-01 0.0000000000000000e+00  1.2459071059953579e+00 -8.1274859280548462e-01 0.0000000000000000e+00  1.5614476121608909e+00 -8.1321039682827811e-01 0.0000000000000000e+00  1.7149644414774743e+00 -7.5341461372607255e-01 0.0000000000000000e+00  1.7802431253977373e+00 -6.8840164977987883e-01 0.0000000000000000e+00  1.8147662834881217e+00 -6.4938776635570339e-01 0.0000000000000000e+00  1.9502735566375002e+00 -7.0443985562456313e-01 0.0000000000000000e+00  2.1560389289328850e+00 -7.7268495059512698e-01 0.0000000000000000e+00  2.2628674278205709e+00 -8.5168404247015028e-01 0.0000000000000000e+00  2.3029007822605889e+00 -9.8629045996190556e-01 0.0000000000000000e+00  2.2980747847463596e+00 -1.1115670033358507e+00 0.0000000000000000e+00  2.3313787277760794e+00 -1.2305933992855744e+00 0.0000000000000000e+00  2.4012016733085204e+00 -1.2768764344824775e+00 0.0000000000000000e+00  2.5694030010451803e+00 -1.3389556199148991e+00 0.0000000000000000e+00  2.8359168293311727e+00 -1.4082567032143125e+00 0.0000000000000000e+00  2.9442993123574857e+00 -1.3999929707673449e+00 0.0000000000000000e+00  3.0927038301785674e+00 -1.3409497258408565e+00 0.0000000000000000e+00  3.1619985975243834e+00 -1.2407006929883937e+00 0.0000000000000000e+00  3.1720536619975594e+00 -1.1401804766135748e+00 0.0000000000000000e+00  3.1229064757839109e+00 -1.0393123510113391e+00 0.0000000000000000e+00  3.0237661378955285e+00 -9.7836573083167255e-01 0.0000000000000000e+00  2.9036568444665551e+00 -1.0091977488476880e+00 0.0000000000000000e+00  2.7813307603509458e+00 -1.0328839660693556e+00 0.0000000000000000e+00  2.6827569405193481e+00 -9.6178545546108363e-01 0.0000000000000000e+00  2.6991741929326718e+00 -8.4018591602688875e-01 0.0000000000000000e+00  2.7505182912769248e+00 -7.7342862583645489e-01 0.0000000000000000e+00  2.8267235630216105e+00 -7.1773460862377614e-01 0.0000000000000000e+00  2.9166618795538408e+00 -6.8701293593227475e-01 0.0000000000000000e+00  3.0059781514174237e+00 -6.3980640110747444e-01 0.0000000000000000e+00  3.0540219808324789e+00 -5.6778322052466468e-01 0.0000000000000000e+00  3.1002432486951830e+00 -4.4607991827956489e-01 0.0000000000000000e+00  3.1240019717341543e+00 -3.1009253570029738e-01 0.0000000000000000e+00  3.1160664524623032e+00 -1.8964071708183608e-01 0.0000000000000000e+00  3.0985732193316191e+00 -6.1614675106679805e-02 0.0000000000000000e+00  3.0845860637361509e+00 3.3442017369764980e-02 0.0000000000000000e+00  3.0601458287983121e+00 1.1832485252195835e-01 0.0000000000000000e+00  3.0185930850482681e+00 2.0507752363093815e-01 0.0000000000000000e+00  2.9564651434335141e+00 2.7205499135565953e-01 0.0000000000000000e+00  2.8705023606681381e+00 3.3120414352596261e-01 0.0000000000000000e+00  2.7895897674167802e+00 3.5684796517560707e-01 0.0000000000000000e+00  2.7637919878266404e+00 3.5499983561789944e-01 0.0000000000000000e+00  2.7056487618478009e+00 3.7898510182333855e-01 0.0000000000000000e+00  2.6236448636126797e+00 4.0940269444960442e-01 0.0000000000000000e+00  2.4224409901365709e+00 4.6265606794943520e-01 0.0000000000000000e+00  2.2553819996911284e+00 5.0635274284670351e-01 0.0000000000000000e+00  2.0949612983842099e+00 5.3141338636501134e-01 0.0000000000000000e+00  2.0079029375161563e+00 5.4564359102155291e-01 0.0000000000000000e+00  1.9121571568400260e+00 5.7539276371024817e-01 0.0000000000000000e+00  1.7920145628806594e+00 6.0296553937855102e-01 0.0000000000000000e+00  1.6237921472901895e+00 6.1545207531829438e-01 0.0000000000000000e+00  1.5218023590773948e+00 5.9728228273770323e-01 0.0000000000000000e+00  1.4863478269735928e+00 5.8592630394149292e-01 0.0000000000000000e+00  1.4614422008976042e+00 5.8636830944959761e-01 0.0000000000000000e+00  1.7350931277103583e+00 5.8489824075140961e-01 0.0000000000000000e+00  1.4442227966609082e+00 -2.1564510463270650e-01 0.0000000000000000e+00  0.0000000000000000e+00 0.0000000000000000e+00 0.0000000000000000e+00  0.0000000000000000e+00 0.0000000000000000e+00 0.0000000000000000e+00  1.4547542960923106e+00 5.8923393038652394e-01 0.0000000000000000e+00  1.4486285529840222e+00 5.9163356754525587e-01 0.0000000000000000e+00  1.4389013112099052e+00 5.9466621990351831e-01 0.0000000000000000e+00  1.4243560455093083e+00 5.9845503043543169e-01 0.0000000000000000e+00  1.3797031604386683e+00 6.0574628761438398e-01 0.0000000000000000e+00  1.3471730498285936e+00 6.0918137730960586e-01 0.0000000000000000e+00  1.3006442576664934e+00 6.1129178945872698e-01 0.0000000000000000e+00  1.1640559177325966e+00 6.0656890554342224e-01 0.0000000000000000e+00  8.4777116580577405e-01 5.3343940201989404e-01 0.0000000000000000e+00  7.7433656270408235e-01 5.1252526827809641e-01 0.0000000000000000e+00  4.9416200621320744e-01 4.5722070878717935e-01 0.0000000000000000e+00  4.4568085867372365e-01 4.8294670794468303e-01 0.0000000000000000e+00  3.6303612465282131e-01 5.4895627801976643e-01 0.0000000000000000e+00  3.3480083005476358e-01 5.7645827711980246e-01 0.0000000000000000e+00  2.5405532264465536e-01 6.1396833257054828e-01 0.0000000000000000e+00  1.8424022720944749e-01 5.5454916028767132e-01 0.0000000000000000e+00  1.7113336250370673e-01 5.2368534885666307e-01 0.0000000000000000e+00  1.3452162027852235e-01 4.3448686945788767e-01 0.0000000000000000e+00  1.1227452371268266e-01 3.7091996749785244e-01 0.0000000000000000e+00  6.1586510325745712e-02 2.1964880518004046e-01 0.0000000000000000e+00  4.8327247726386822e-03 -1.4131372351544072e-01 0.0000000000000000e+00  1.9066821796631586e-01 -5.0807341269902695e-01 0.0000000000000000e+00  5.5830675613178149e-01 -6.5347243162514490e-01 0.0000000000000000e+00  6.5987546192450419e-01 -6.8204336839841262e-01 0.0000000000000000e+00  1.4280591044646531e+00 -8.2957063187329350e-01 0.0000000000000000e+00  1.6388717026086039e+00 -7.8615630465022801e-01 0.0000000000000000e+00  1.8573309930107098e+00 -6.5179726119514803e-01 0.0000000000000000e+00  2.2818749739420592e+00 -9.0925887280793061e-01 0.0000000000000000e+00  2.3165346738893842e+00 -1.1787522856279131e+00 0.0000000000000000e+00  2.4733229655309383e+00 -1.3027875061665122e+00 0.0000000000000000e+00  2.6791303791886270e+00 -1.3684547345121929e+00 0.0000000000000000e+00  2.7670668277398627e+00 -1.3913854744617740e+00 0.0000000000000000e+00  3.0088206599183631e+00 -1.3745237704096316e+00 0.0000000000000000e+00  2.9717104710776647e+00 -9.9162787730591961e-01 0.0000000000000000e+00  2.6902868111804721e+00 -9.0819373069184384e-01 0.0000000000000000e+00  2.9669572450980275e+00 -6.5984291114253546e-01 0.0000000000000000e+00  3.1143025266952775e+00 -3.6907389359890092e-01 0.0000000000000000e+00  3.1094089387050552e+00 -1.1896360232018886e-01 0.0000000000000000e+00  3.0440030568023051e+00 1.5747977351118722e-01 0.0000000000000000e+00  2.9092172698141701e+00 3.0876633084568439e-01 0.0000000000000000e+00  2.8235712593078826e+00 3.5036307992133459e-01 0.0000000000000000e+00  2.7399159902288299e+00 3.6096140980041591e-01 0.0000000000000000e+00  2.5438126668266747e+00 4.4719177067055399e-01 0.0000000000000000e+00  2.1761660573415225e+00 5.1678759940721219e-01 0.0000000000000000e+00  1.7017666094432087e+00 6.1207146990937622e-01 0.0000000000000000e+00  1.5586505756836682e+00 6.0645139467388387e-01 0.0000000000000000e+00  1.4986272989566487e+00 5.9002262599133926e-01 0.0000000000000000e+00  1.4787655678616978e+00 5.8512857320012879e-01 0.0000000000000000e+00  1.4714720714951701e+00 5.8544211399026036e-01 0.0000000000000000e+00  1.4657549877531104e+00 5.8586068979703243e-01 0.0000000000000000e+00  2.0745144980087464e+00 6.1302958840071720e-01 0.0000000000000000e+00  2.4380064013838787e+00 6.0219481110737993e-01 0.0000000000000000e+00  2.7725883634467920e+00 5.2106828843894404e-01 0.0000000000000000e+00  3.0399876927037224e+00 3.6533931658158486e-01 0.0000000000000000e+00  3.1449902548484197e+00 1.1313547386597757e-01 0.0000000000000000e+00  2.9737830947310648e+00 -1.4268451929363657e-01 0.0000000000000000e+00  2.5821442206145244e+00 -2.8675010582201066e-01 0.0000000000000000e+00  2.1646108819786809e+00 -2.9198902410771699e-01 0.0000000000000000e+00  1.7923956946000936e+00 -2.5126906388537812e-01 0.0000000000000000e+00  1.3605502421356135e+00 1.3309846474267945e-01 0.0000000000000000e+00  1.3107686315926725e+00 4.6734408160020546e-01 0.0000000000000000e+00  1.2966397716536153e+00 7.2069648501440020e-01 0.0000000000000000e+00  1.2781728965100820e+00 8.3545715553337963e-01 0.0000000000000000e+00  1.2110481264094108e+00 8.3151581037795030e-01 0.0000000000000000e+00  1.0976758187251436e+00 7.3528354267476492e-01 0.0000000000000000e+00  9.1701112601792567e-01 5.5447866476655938e-01 0.0000000000000000e+00  6.6039194175896931e-01 3.6126825410212532e-01 0.0000000000000000e+00  3.6075823251806921e-01 2.0307919147720599e-01 0.0000000000000000e+00  4.2441019938917968e-01 -2.4571716460266022e-01 0.0000000000000000e+00  7.6729125863643166e-01 -4.6102096993576136e-01 0.0000000000000000e+00  1.0360091833974110e+00 -6.9674632467799325e-01 0.0000000000000000e+00  1.1831707504115108e+00 -8.4543021749597391e-01 0.0000000000000000e+00  1.2624180682277755e+00 -7.9323616044069434e-01 0.0000000000000000e+00  1.3519813260097042e+00 -5.8838100706034702e-01 0.0000000000000000e+00  1.4586296935193519e+00 -3.2247722064279588e-01 0.0000000000000000e+00  1.5629494038964109e+00 -3.7652906970012778e-02 0.0000000000000000e+00  1.6507041014798929e+00 2.6175427840071014e-01 0.0000000000000000e+00  0.0000000000000000e+00 0.0000000000000000e+00 0.0000000000000000e+00  0.0000000000000000e+00 0.0000000000000000e+00 0.0000000000000000e+00  0.0000000000000000e+00 0.0000000000000000e+00 0.0000000000000000e+00  0.0000000000000000e+00 0.0000000000000000e+00 0.0000000000000000e+00  0.0000000000000000e+00 0.0000000000000000e+00 0.0000000000000000e+00  0.0000000000000000e+00 0.0000000000000000e+00 0.0000000000000000e+00  0.0000000000000000e+00 0.0000000000000000e+00 0.0000000000000000e+00  0.0000000000000000e+00 0.0000000000000000e+00 0.0000000000000000e+00  0.0000000000000000e+00 0.0000000000000000e+00 0.0000000000000000e+00  3.0748147757778677e+00 -5.1457712485095364e-01 0.0000000000000000e+00  2.4162470803430898e+00 -9.7562975152072316e-03 0.0000000000000000e+00  2.4324691802459961e-01 -8.6059880378009518e-02 0.0000000000000000e+00  2.5005098253680419e-01 6.6715796504504210e-02 0.0000000000000000e+00  1.6645378362990038e+00 5.9640626264857377e-01 0.0000000000000000e+00  1.3204524842592222e+00 7.6355623854132548e-01 0.0000000000000000e+00  3.0793419728057043e+00 1.6564159473146287e-01 0.0000000000000000e+00  1.4614106256309347e+00 -7.1274100195837986e-01 0.0000000000000000e+00  -1.6098403180990264e-04 -1.4967251060636174e-02 0.0000000000000000e+00  7.2623245429283478e-01 4.3327825828366306e-01 0.0000000000000000e+00  1.0444034587968865e+00 -7.2339072131213611e-01 0.0000000000000000e+00  1.5524805450049972e-01 7.1367994790015585e-02 0.0000000000000000e+00  2.1976381871718423e-01 -1.1036047502968804e-01 0.0000000000000000e+00  1.8795303135556838e+00 3.9200185477361338e-01 0.0000000000000000e+00  1.5708004761600545e+00 -2.3533943132827387e-03 0.0000000000000000e+00  2.7445083500766859e-01 3.6256761979334140e-01 0.0000000000000000e+00  2.4918704515804309e+00 -8.1866735183706485e-01 0.0000000000000000e+00  2.5015875897568707e+00 -1.0763695538544900e+00 0.0000000000000000e+00  2.8988677974597929e+00 -1.2081204984307363e+00 0.0000000000000000e+00  2.9194563374317721e+00 -5.2424491948681728e-01 0.0000000000000000e+00  2.5867505015575132e-01 5.4365610098196770e-01 0.0000000000000000e+00  1.4535461265528640e+00 5.8905640216568689e-01 0.0000000000000000e+00  4.6421957202954965e-02 -1.9193966018418478e-02 0.0000000000000000e+00  2.1021674658235416e+00 1.2383009473365909e-01 0.0000000000000000e+00  1.7686529971624834e+00 -4.0899026729073107e-01 0.0000000000000000e+00  2.8729122404647915e+00 1.9012448018678776e-01 0.0000000000000000e+00  2.6534423030092023e+00 -1.2545181500274225e-01 0.0000000000000000e+00  2.1816857197696704e+00 1.6230565540984343e-01 0.0000000000000000e+00  3.8741052653456370e-01 1.7495342919903162e-01 0.0000000000000000e+00  6.0925659121460951e-01 -3.4422896161413918e-01 0.0000000000000000e+00  1.1080455990925329e+00 7.4541996070968730e-01 0.0000000000000000e+00  1.6470275226438702e+00 2.9584421396981586e-01 0.0000000000000000e+00  9.4278378398326576e-02 -7.2769486954148088e-02 0.0000000000000000e+00  1.4380208941038390e+00 7.6271957742423180e-01 0.0000000000000000e+00  1.6826418749298195e+00 6.7579271642349870e-01 0.0000000000000000e+00  3.3176496940809830e-01 1.4560505339376331e-01 0.0000000000000000e+00  4.7112517909519436e-01 -2.7184528867271968e-01 0.0000000000000000e+00  8.6132209057814629e-02 3.8284512435740468e-04 0.0000000000000000e+00  9.3879138503532675e-02 1.9476556203353490e-03 0.0000000000000000e+00  1.2459705495814219e+00 -8.0841823563868553e-01 0.0000000000000000e+00  3.0781286002611674e+00 7.4404666570599132e-02 0.0000000000000000e+00  1.4444934946530466e+00 6.8772902882177100e-01 0.0000000000000000e+00  2.8937211096732263e+00 1.9142831827266651e-01 0.0000000000000000e+00  3.0260124232432979e+00 1.6035602831414189e-01 0.0000000000000000e+00  1.5192795380724948e+00 -7.0057550319089323e-01 0.0000000000000000e+00  3.4238308869078554e-04 -7.3371836486262575e-03 0.0000000000000000e+00  7.4869537412682896e-01 4.6048354963574228e-01 0.0000000000000000e+00  1.1047926381546249e+00 -7.8372741040716254e-01 0.0000000000000000e+00  1.7344885515552458e-01 3.0061171151184335e-01 0.0000000000000000e+00  2.8761437028820618e+00 -5.9645939045453500e-01 0.0000000000000000e+00  2.8400036423484804e-01 4.6252022367150719e-01 0.0000000000000000e+00  2.6174629281621580e+00 -6.6790059635123356e-01 0.0000000000000000e+00  2.3325080313053137e+00 -6.6866824457436191e-01 0.0000000000000000e+00  2.6831339391100855e+00 -1.2270367651189322e+00 0.0000000000000000e+00  2.5113065369419698e+00 -9.3618316314789518e-01 0.0000000000000000e+00  3.0140074970649131e+00 -1.1517529794451873e+00 0.0000000000000000e+00  3.0056426841449544e+00 -4.9149557817282996e-01 0.0000000000000000e+00  2.3891131956314640e+00 -1.0340919600198488e+00 0.0000000000000000e+00  2.9639998881901257e+00 -5.9556545189626919e-01 0.0000000000000000e+00  2.4521064336176339e+00 -1.2043010439710695e+00 0.0000000000000000e+00  2.9489311842107577e+00 -1.3148268124503972e+00 0.0000000000000000e+00  2.8576939327988029e+00 -1.0963747802137205e+00 0.0000000000000000e+00  2.1810626594140911e-01 5.2183901551794198e-01 0.0000000000000000e+00  2.7854908331406625e-01 5.7938721324564235e-01 0.0000000000000000e+00  2.3062376548865840e-01 5.7156788701888717e-01 0.0000000000000000e+00  1.4336005078300198e+00 5.9432352522495369e-01 0.0000000000000000e+00  1.4613451019247101e+00 5.8765364574290013e-01 0.0000000000000000e+00  1.4542253356770505e+00 5.8845092433230362e-01 0.0000000000000000e+00  2.1157929582411641e+00 -3.2649979490951969e-01 0.0000000000000000e+00  2.5671590139359317e+00 2.5776219989780108e-01 0.0000000000000000e+00  5.1449247817799637e-02 8.3844179145861359e-03 0.0000000000000000e+00  2.8103315575889019e+00 3.6560053126465437e-02 0.0000000000000000e+00  2.3692020038592579e-01 -9.4614472456036422e-02 0.0000000000000000e+00  1.7901039118790680e+00 -1.1772934380724377e-01 0.0000000000000000e+00  3.0922727170754793e+00 1.8422885910255868e-01 0.0000000000000000e+00  2.8312349253650608e+00 7.8859184563537590e-02 0.0000000000000000e+00  6.2672529457092396e-01 3.4830009944163248e-01 0.0000000000000000e+00  8.5671321199154594e-03 -1.9625906241980014e-02 0.0000000000000000e+00  4.9173346018397890e-01 2.3213290479275894e-01 0.0000000000000000e+00  5.9106410608531668e-02 -1.9247968308835548e-02 0.0000000000000000e+00  1.9329665083055920e+00 8.6478982308714286e-02 0.0000000000000000e+00  1.5197239642574361e+00 -5.9381888975505281e-01 0.0000000000000000e+00  1.5771913109170962e-01 4.7127050941107688e-02 0.0000000000000000e+00  1.1501795239274291e+00 6.9535480140297956e-01 0.0000000000000000e+00  2.1187565462085520e+00 3.5965231094647321e-01 0.0000000000000000e+00  1.2155551227428631e+00 8.0727505255700660e-01 0.0000000000000000e+00  8.2500348628007703e-01 -5.0624302182899106e-01 0.0000000000000000e+00  2.0324124789825624e+00 3.9709261166118848e-01 0.0000000000000000e+00  1.4446554184153824e+00 6.0917761104570844e-01 0.0000000000000000e+00  9.4155162205993825e-01 6.2563679885202672e-01 0.0000000000000000e+00  -7.3623394417662172e-03 -1.0552531272867436e-02 0.0000000000000000e+00  1.8459278609943859e+00 1.5818679054690532e-01 0.0000000000000000e+00  2.6608940587802046e+00 -3.5914538877812252e-01 0.0000000000000000e+00  1.0128515901761558e-01 6.4891882924676320e-02 0.0000000000000000e+00  8.9613743131927837e-01 -5.9962533766100112e-01 0.0000000000000000e+00  1.2368310806801222e+00 -7.8843420593606195e-01 0.0000000000000000e+00  2.8902215014443646e+00 -9.9148869035219370e-02 0.0000000000000000e+00  2.9834144750128411e-01 1.4321528981855411e-01 0.0000000000000000e+00  1.7172867958687330e-01 -2.3853529673327128e-01 0.0000000000000000e+00  3.0098610263339931e+00 2.2854675916961614e-01 0.0000000000000000e+00  1.5024586647092733e+00 7.2868566385422284e-01 0.0000000000000000e+00  2.3560836681161212e-02 -8.8787139621739300e-02 0.0000000000000000e+00  2.2148548810901339e-01 -1.1228665037685505e-01 0.0000000000000000e+00  1.5643893641100364e+00 7.0088768362692222e-01 0.0000000000000000e+00  1.6442599216332272e+00 6.7337436072454904e-01 0.0000000000000000e+00  1.8451881358790763e+00 6.2359538644116175e-01 0.0000000000000000e+00  1.2439883940892817e+00 -8.2263058742789097e-01 0.0000000000000000e+00  2.5390257296194303e+00 2.2114695926421460e-01 0.0000000000000000e+00  1.1230026800546888e+00 -7.8716769537033171e-01 0.0000000000000000e+00  3.8161376359812915e-01 2.6048307975341906e-01 0.0000000000000000e+00  4.7459919368805048e-01 -3.9494688956421781e-01 0.0000000000000000e+00  1.4767196062092547e+00 6.3601118992857519e-01 0.0000000000000000e+00  1.6185094562663409e+00 -6.8278149413283673e-01 0.0000000000000000e+00  8.6686922298885938e-01 5.7341322672773054e-01 0.0000000000000000e+00  3.0093481418129722e+00 -3.6334201620255868e-01 0.0000000000000000e+00  2.0702251072500691e-01