<?xml version="1.0"?>
<VTKFile type="UnstructuredGrid"  version="0.1"  >
<UnstructuredGrid>
<Piece  NumberOfPoints="2868" NumberOfCells="5400">
<Points>
<DataArray  type="Float64"  NumberOfComponents="3"  format="ascii">0.534923 0.326073 0  0.510642 0.314196 0  0.466125 0.293082 0  0.436448 0.281205 0  0.409468 0.275927 0  0.368998 0.270648 0  0.35281 0.275927 0  0.381139 0.302319 0  0.405421 0.326073 0  0.410817 0.33531 0  0.408119 0.349826 0  0.400025 0.357744 0  0.375743 0.368301 0  0.329878 0.392055 0  0.297502 0.432963 0  0.282663 0.476511 0  0.285361 0.524018 0  0.298851 0.572845 0  0.317737 0.6045160000000001 0  0.337972 0.6361869999999999 0  0.360904 0.674457 0  0.368998 0.69953 0  0.359555 0.7219640000000001 0  0.360904 0.757594 0  0.370347 0.766831 0  0.381139 0.762872 0  0.390582 0.741758 0  0.404072 0.720644 0  0.424307 0.707448 0  0.447239 0.702169 0  0.480964 0.704808 0  0.479615 0.6889729999999999 0  0.468823 0.675776 0  0.447239 0.6691780000000001 0  0.428354 0.6691780000000001 0  0.410817 0.6639 0  0.404072 0.653343 0  0.395978 0.628269 0  0.387884 0.59132 0  0.389233 0.576804 0  0.397327 0.557009 0  0.410817 0.547772 0  0.424307 0.546452 0  0.437797 0.55305 0  0.44589 0.5662469999999999 0  0.441843 0.582082 0  0.439145 0.5979179999999999 0  0.449937 0.609795 0  0.468823 0.603196 0  0.479615 0.59 0  0.489058 0.570205 0  0.494454 0.546452 0  0.505246 0.522699 0  0.522783 0.509502 0  0.55246 0.494986 0  0.586185 0.484429 0  0.615863 0.48047 0  0.64554 0.473872 0  0.6671240000000001 0.461995 0  0.683312 0.451438 0  0.696802 0.435603 0  0.703547 0.417128 0  0.7116400000000001 0.393374 0  0.7183850000000001 0.37226 0  0.7251300000000001 0.364342 0  0.739969 0.353785 0  0.7453650000000001 0.344548 0  0.7453650000000001 0.327393 0  0.737271 0.318155 0  0.7183850000000001 0.316835 0  0.7008490000000001 0.319475 0  0.677916 0.318155 0  0.650936 0.316835 0  0.610467 0.318155 0  0.57944 0.324753 0  0.559205 0.328712 0  0.5389699999999999 0.326073 0  1 1 0  1 0 0  0 0 0  0 1 0  0.532238 0.32476 0  0.528748 0.323052 0  0.52421 0.320833 0  0.518311 0.317947 0  0.503447 0.310783 0  0.494093 0.306347 0  0.481933 0.30058 0  0.452151 0.28749 0  0.392327 0.273691 0  0.379141 0.271971 0  0.360474 0.283066 0  0.369797 0.291752 0  0.391424 0.31238 0  0.399335 0.32012 0  0.40958 0.341964 0  0.393939 0.36039 0  0.386028 0.36383 0  0.364248 0.374254 0  0.349304 0.381994 0  0.315801 0.409841 0  0.292986 0.551616 0  0.350934 0.657818 0  0.360127 0.737055 0  0.360566 0.748664 0  0.385245 0.753692 0  0.396447 0.732578 0  0.466301 0.703661 0  0.459439 0.672908 0  0.418442 0.666195 0  0.400553 0.642441 0  0.39255 0.612619 0  0.389913 0.60058 0  0.392752 0.568197 0  0.444131 0.573132 0  0.458149 0.606926 0  0.5005540000000001 0.533026 0  0.571522 0.489019 0  0.632637 0.476741 0  0.689177 0.444553 0  0.708121 0.403702 0  0.715453 0.38144 0  0.732406 0.359166 0  0.7453650000000001 0.337089 0  0.72906 0.317581 0  0.629879 0.317522 0  0.59293 0.321884 0  0.568003 0.326991 0  0.55202 0.327775 0  0.546493 0.327054 0  0.542241 0.326499 0  1 0.9 0  1 0.8 0  1 0.7 0  1 0.6 0  1 0.5 0  1 0.4 0  1 0.3 0  1 0.2 0  1 0.1 0  0.9 0 0  0.8 0 0  0.7 0 0  0.6 0 0  0.5 0 0  0.4 0 0  0.3 0 0  0.2 0 0  0.1 0 0  0.1 1 0  0.2 1 0  0.3 1 0  0.4 1 0  0.5 1 0  0.6 1 0  0.7 1 0  0.8 1 0  0.9 1 0  0 0.1 0  0 0.2 0  0 0.3 0  0 0.4 0  0 0.5 0  0 0.6 0  0 0.7 0  0 0.8 0  0 0.9 0  0.535686 0.5031910000000001 0  0.753987 0.733359 0  0.167145 0.741436 0  0.173378 0.257204 0  0.733497 0.159862 0  0.554096 0.15788 0  0.849187 0.479053 0  0.488793 0.838452 0  0.138507 0.5592 0  0.30686 0.154944 0  0.348904 0.890523 0  0.058006 0.065099 0  0.06984899999999999 0.937917 0  0.93633 0.939704 0  0.934625 0.053613 0  0.343397 0.333452 0  0.473272 0.639943 0  0.433266 0.638072 0  0.415174 0.58269 0  0.533435 0.545042 0  0.390848 0.340652 0  0.53655 0.320242 0  0.127966 0.393775 0  0.83861 0.850455 0  0.635242 0.8551299999999999 0  0.852158 0.633441 0  0.653427 0.626848 0  0.861226 0.24292 0  0.166128 0.12976 0  0.216875 0.8698709999999999 0  0.458305 0.11179 0  0.84446 0.101633 0  0.202024 0.642528 0  0.644825 0.115855 0  0.671342 0.218358 0  0.251354 0.286186 0  0.262388 0.75153 0  0.063044 0.751571 0  0.068189 0.242962 0  0.435781 0.9053949999999999 0  0.934144 0.451133 0  0.568393 0.237622 0  0.814984 0.395506 0  0.752951 0.517227 0  0.456254 0.780699 0  0.073352 0.531116 0  0.337731 0.206071 0  0.363213 0.960371 0  0.330742 0.363592 0  0.516613 0.55705 0  0.369057 0.332992 0  0.500926 0.617309 0  0.498004 0.665534 0  0.412142 0.61178 0  0.454233 0.6366039999999999 0  0.422782 0.567496 0  0.541193 0.5214800000000001 0  0.439761 0.65557 0  0.5163 0.533672 0  0.414775 0.64562 0  0.40073 0.576135 0  0.430362 0.5880339999999999 0  0.385432 0.351492 0  0.400298 0.335397 0  0.398325 0.348194 0  0.528702 0.314885 0  0.540814 0.322334 0  0.534477 0.322953 0  0.619095 0.743583 0  0.885162 0.737972 0  0.08076 0.668849 0  0.90734 0.36634 0  0.09468699999999999 0.868937 0  0.759838 0.912152 0  0.901518 0.540898 0  0.747285 0.607479 0  0.229182 0.071641 0  0.06915399999999999 0.450091 0  0.244775 0.203309 0  0.076534 0.331755 0  0.897847 0.167826 0  0.578909 0.911415 0  0.07713299999999999 0.146341 0  0.477215 0.203448 0  0.922631 0.869341 0  0.517415 0.074785 0  0.297026 0.827793 0  0.7832710000000001 0.246505 0  0.74519 0.061079 0  0.36033 0.069068 0  0.210313 0.475228 0  0.859426 0.928758 0  0.5745479999999999 0.609182 0  0.243069 0.383398 0  0.283099 0.934598 0  0.417416 0.843141 0  0.643942 0.553164 0  0.112687 0.079336 0  0.281357 0.658386 0  0.765043 0.436177 0  0.611361 0.198486 0  0.234496 0.58911 0  0.206479 0.702638 0  0.679608 0.155818 0  0.62682 0.259978 0  0.690538 0.264164 0  0.448938 0.956308 0  0.808154 0.328403 0  0.379583 0.91913 0  0.308083 0.297769 0  0.312358 0.730249 0  0.563101 0.278576 0  0.435597 0.746198 0  0.385475 0.225229 0  0.572248 0.518034 0  0.357864 0.35422 0  0.497647 0.641694 0  0.458101 0.655768 0  0.360474 0.310727 0  0.467038 0.620139 0  0.47798 0.659909 0  0.41102 0.628072 0  0.48324 0.609015 0  0.427544 0.617941 0  0.388633 0.328253 0  0.405336 0.599404 0  0.408351 0.565178 0  0.42395 0.600985 0  0.431562 0.576523 0  0.424905 0.6551979999999999 0  0.398064 0.58782 0  0.427739 0.557934 0  0.5192909999999999 0.303443 0  0.53142 0.320293 0  0.5449000000000001 0.323642 0  0.537166 0.323513 0  0.153974 0.920841 0  0.9181859999999999 0.67343 0  0.759946 0.820588 0  0.5375259999999999 0.783091 0  0.816532 0.545843 0  0.813991 0.178083 0  0.836774 0.702023 0  0.149815 0.318856 0  0.662287 0.923338 0  0.680146 0.791192 0  0.708961 0.663172 0  0.9372779999999999 0.287318 0  0.574622 0.6881660000000001 0  0.5894740000000001 0.076262 0  0.502822 0.926683 0  0.222269 0.811068 0  0.380457 0.164786 0  0.15321 0.684154 0  0.458063 0.051413 0  0.161702 0.056026 0  0.199351 0.198818 0  0.298946 0.09553200000000001 0  0.902465 0.795949 0  0.121139 0.791477 0  0.906269 0.112287 0  0.056109 0.822332 0  0.512172 0.13237 0  0.940964 0.741805 0  0.888887 0.408777 0  0.354543 0.825964 0  0.808736 0.068638 0  0.068507 0.394071 0  0.719105 0.563843 0  0.247287 0.149664 0  0.293062 0.237128 0  0.240524 0.434997 0  0.141255 0.623289 0  0.945202 0.160621 0  0.502914 0.247629 0  0.144669 0.480811 0  0.665025 0.060817 0  0.728047 0.224344 0  0.861995 0.313312 0  0.200068 0.534235 0  0.253262 0.965623 0  0.893804 0.49307 0  0.604391 0.572456 0  0.947088 0.345347 0  0.439372 0.227307 0  0.629847 0.159823 0  0.273405 0.880181 0  0.302744 0.776823 0  0.781502 0.295365 0  0.275342 0.349602 0  0.7283849999999999 0.472798 0  0.229136 0.246478 0  0.807794 0.480346 0  0.709476 0.112786 0  0.275506 0.694991 0  0.771674 0.394419 0  0.449715 0.861802 0  0.419159 0.799696 0  0.674851 0.503139 0  0.280443 0.61016 0  0.572443 0.192538 0  0.393113 0.87525 0  0.405555 0.948428 0  0.330942 0.934103 0  0.540509 0.597101 0  0.312763 0.6689310000000001 0  0.254368 0.540179 0  0.595265 0.25915 0  0.606679 0.234099 0  0.657131 0.279138 0  0.722458 0.279478 0  0.333 0.308056 0  0.351529 0.246142 0  0.455714 0.7257940000000001 0  0.585239 0.295143 0  0.340062 0.72492 0  0.545593 0.293773 0  0.555449 0.545426 0  0.414311 0.737314 0  0.590854 0.502323 0  0.350507 0.368444 0  0.484423 0.625665 0  0.483899 0.674542 0  0.378137 0.317274 0  0.446416 0.646404 0  0.373532 0.347654 0  0.446876 0.619769 0  0.466106 0.666068 0  0.437545 0.609254 0  0.434988 0.565726 0  0.41462 0.656829 0  0.418803 0.556961 0  0.398425 0.327446 0  0.517803 0.310421 0  0.549516 0.322918 0  0.57701 0.842889 0  0.8291269999999999 0.773906 0  0.643235 0.684732 0  0.134281 0.207734 0  0.865997 0.055966 0  0.680959 0.723345 0  0.165229 0.8415550000000001 0  0.54558 0.959672 0  0.783726 0.656439 0  0.913315 0.595533 0  0.699439 0.860667 0  0.785839 0.125076 0  0.551673 0.037713 0  0.9200970000000001 0.223214 0  0.206406 0.299726 0  0.087064 0.596401 0  0.935644 0.394252 0  0.964557 0.252582 0  0.230124 0.928346 0  0.120579 0.271764 0  0.8572149999999999 0.524082 0  0.7670979999999999 0.5551469999999999 0  0.936094 0.507131 0  0.804064 0.59585 0  0.700565 0.608273 0  0.429773 0.174231 0  0.117746 0.727333 0  0.5389620000000001 0.730231 0  0.862761 0.359173 0  0.821444 0.284046 0  0.193552 0.35818 0  0.234923 0.505555 0  0.193209 0.421217 0  0.220144 0.755896 0  0.594015 0.131642 0  0.283813 0.195855 0  0.517519 0.213961 0  0.553509 0.639116 0  0.280391 0.378018 0  0.852183 0.436817 0  0.746983 0.197173 0  0.821806 0.221318 0  0.449853 0.828453 0  0.883758 0.453926 0  0.183484 0.589542 0  0.348384 0.129314 0  0.255254 0.838525 0  0.504849 0.798516 0  0.320344 0.863432 0  0.611669 0.525425 0  0.265864 0.804962 0  0.72056 0.521442 0  0.613372 0.6101220000000001 0  0.481262 0.881068 0  0.655778 0.191988 0  0.701921 0.196918 0  0.5658260000000001 0.5731810000000001 0  0.46914 0.240927 0  0.343219 0.173284 0  0.888786 0.278502 0  0.244113 0.6750930000000001 0  0.739546 0.417914 0  0.784023 0.355942 0  0.326805 0.265549 0  0.248616 0.6
[...]
<PointData  Vectors="f_21"> 
<DataArray  type="Float64"  Name="f_21"  NumberOfComponents="3" format="ascii">2.4486727034507213e-04 -6.7445427322250585e-05 0.0000000000000000e+00  1.2352662879747044e-04 -1.8116056146754923e-05 0.0000000000000000e+00  2.6677670691378956e-05 -2.0608911785305408e-06 0.0000000000000000e+00  8.8288423432949835e-06 -8.4013249313593739e-07 0.0000000000000000e+00  2.9149807280031023e-06 -3.5735876859172885e-07 0.0000000000000000e+00  4.6873219481062753e-07 -7.2722700090116198e-08 0.0000000000000000e+00  1.2287665886301934e-07 -2.7304562727302171e-08 0.0000000000000000e+00  4.5785573719913158e-09 4.6203021665913527e-09 0.0000000000000000e+00  6.2049780481942649e-10 8.6756355617663347e-10 0.0000000000000000e+00  3.9295585307078827e-10 8.0446715424792393e-10 0.0000000000000000e+00  8.4992785779243719e-11 6.7813456093909366e-10 0.0000000000000000e+00  -5.6919555448565355e-11 5.1896730042173874e-10 0.0000000000000000e+00  -2.1738542804356221e-10 1.1542484412457834e-10 0.0000000000000000e+00  -3.8627005301728497e-11 -1.6692858687890852e-10 0.0000000000000000e+00  3.7194352572655722e-12 -2.3975701751044166e-11 0.0000000000000000e+00  1.1191669009091339e-13 -2.0796058476271455e-12 0.0000000000000000e+00  -3.9803732578131673e-14 -2.3098394284740848e-14 0.0000000000000000e+00  2.7733328383200310e-13 1.4965534269295570e-12 0.0000000000000000e+00  9.2747168314007321e-13 8.9697833974617851e-12 0.0000000000000000e+00  1.5731413292483902e-13 4.2258565423051608e-11 0.0000000000000000e+00  -6.8630294088103642e-11 1.8392162535221239e-10 0.0000000000000000e+00  -1.3695217925201813e-10 2.1191078601566664e-10 0.0000000000000000e+00  3.2347325291383534e-10 3.9766547133121497e-10 0.0000000000000000e+00  3.8315613400067805e-08 2.6915296940871083e-09 0.0000000000000000e+00  1.8105169473334511e-07 -2.1466191245979509e-08 0.0000000000000000e+00  4.0713354588806737e-07 -4.0360887594723783e-08 0.0000000000000000e+00  9.0066825445490344e-07 -1.0916927298300673e-07 0.0000000000000000e+00  1.6389073315338748e-06 -7.1972294068723858e-08 0.0000000000000000e+00  3.1471998036210013e-06 4.0551535468697493e-07 0.0000000000000000e+00  5.6394833153601039e-06 1.4554896166827929e-06 0.0000000000000000e+00  2.2479679631367751e-05 -9.3761237845048932e-07 0.0000000000000000e+00  2.9936477562953910e-05 -3.1745083853622409e-06 0.0000000000000000e+00  1.9161909349370721e-05 -2.4603162792732832e-06 0.0000000000000000e+00  8.2025016450920434e-06 -1.6714185055026921e-06 0.0000000000000000e+00  4.5216611170689245e-06 -9.5105506376267326e-07 0.0000000000000000e+00  3.2603825080580334e-06 -6.5521579811708250e-08 0.0000000000000000e+00  2.5358048099086765e-06 1.8012473974001884e-07 0.0000000000000000e+00  1.5689190499480847e-06 3.8300984401615890e-07 0.0000000000000000e+00  4.5034463960235423e-07 4.5036447031109681e-07 0.0000000000000000e+00  2.0780703373240466e-07 3.5488184996730728e-07 0.0000000000000000e+00  2.2614190597683042e-08 2.2239082293636622e-07 0.0000000000000000e+00  -3.2189574876711111e-08 1.2844298319550320e-07 0.0000000000000000e+00  -4.0389500980805482e-08 6.6628842944411511e-08 0.0000000000000000e+00  -2.6404362390104484e-08 5.1953831310042250e-09 0.0000000000000000e+00  4.1147454671938105e-08 -7.5744823971051793e-08 0.0000000000000000e+00  2.5844900672351398e-07 -1.1589249163110907e-07 0.0000000000000000e+00  1.4457134055846958e-06 4.5803478067577529e-08 0.0000000000000000e+00  7.9714310541359029e-06 -3.9815973854048946e-07 0.0000000000000000e+00  2.3789165406733072e-05 -2.0080964790614492e-06 0.0000000000000000e+00  4.2307311998623050e-05 -4.2576621562833819e-06 0.0000000000000000e+00  6.7507363114349003e-05 -9.2745252964801637e-06 0.0000000000000000e+00  9.5807009856963145e-05 -1.8222147139370142e-05 0.0000000000000000e+00  1.6118122740523371e-04 -2.3965373006214527e-05 0.0000000000000000e+00  2.5316657124615431e-04 -6.2653304720605175e-06 0.0000000000000000e+00  5.7633934818129232e-04 5.0626914918001989e-05 0.0000000000000000e+00  1.4228055103176556e-03 2.0725781926766889e-04 0.0000000000000000e+00  3.1819894368443863e-03 4.5357847857616112e-04 0.0000000000000000e+00  6.9783196675178571e-03 3.6589295068108744e-04 0.0000000000000000e+00  1.2489275898994730e-02 4.8048585487777995e-04 0.0000000000000000e+00  1.7777111519550182e-02 2.6830863783797957e-04 0.0000000000000000e+00  2.3920379616363115e-02 -3.0103147956686831e-04 0.0000000000000000e+00  2.9399286296946610e-02 -1.1636817506330038e-03 0.0000000000000000e+00  3.5268663628083285e-02 -1.7116335543000440e-03 0.0000000000000000e+00  4.0587354346571229e-02 -1.6022347955983814e-03 0.0000000000000000e+00  4.2618844258289858e-02 -5.6354347540264619e-04 0.0000000000000000e+00  4.5689137660654286e-02 8.2376951805704477e-04 0.0000000000000000e+00  4.7040914211062476e-02 5.9285579199372330e-04 0.0000000000000000e+00  4.2444529492540753e-02 -5.2247357706742019e-04 0.0000000000000000e+00  3.3530978114886964e-02 -1.4871836080795038e-03 0.0000000000000000e+00  2.2039924977128634e-02 -3.7552810458984496e-03 0.0000000000000000e+00  1.5955675337755510e-02 -4.2716635698951929e-03 0.0000000000000000e+00  1.0722937359492014e-02 -3.1185705964913882e-03 0.0000000000000000e+00  5.8292328723078832e-03 -1.7075920448479226e-03 0.0000000000000000e+00  1.8385955258729146e-03 -6.0860309767437313e-04 0.0000000000000000e+00  6.6357963656863501e-04 -2.8450593067099974e-04 0.0000000000000000e+00  4.0526909505121238e-04 -1.6842821104549524e-04 0.0000000000000000e+00  2.5969275338786821e-04 -7.8804811282515098e-05 0.0000000000000000e+00  2.1757658098594687e-01 -6.0770811342563527e-02 0.0000000000000000e+00  2.1764165864861817e-01 6.0971885829946185e-02 0.0000000000000000e+00  0.0000000000000000e+00 0.0000000000000000e+00 0.0000000000000000e+00  0.0000000000000000e+00 0.0000000000000000e+00 0.0000000000000000e+00  2.3174420773854312e-04 -5.7923546615660817e-05 0.0000000000000000e+00  2.1204930397001570e-04 -4.7821955473865156e-05 0.0000000000000000e+00  1.8627807372388275e-04 -3.7055078361472683e-05 0.0000000000000000e+00  1.5672622936390015e-04 -2.7048126176257847e-05 0.0000000000000000e+00  9.8682396275230202e-05 -1.2849363339771874e-05 0.0000000000000000e+00  7.2013194349264685e-05 -7.8180686560021722e-06 0.0000000000000000e+00  4.8601604579851085e-05 -4.5028230973680787e-06 0.0000000000000000e+00  1.6241933585619218e-05 -1.3598908305159556e-06 0.0000000000000000e+00  1.5291838631448025e-06 -2.8368663840362391e-07 0.0000000000000000e+00  8.5455125251299378e-07 -1.3155082465842000e-07 0.0000000000000000e+00  4.3770678529796469e-08 9.3809971184126158e-09 0.0000000000000000e+00  1.3987588149233898e-08 9.2664691949492309e-09 0.0000000000000000e+00  1.5818658773583008e-09 1.9735789014660186e-09 0.0000000000000000e+00  8.8771379112456989e-10 1.1277676819258267e-09 0.0000000000000000e+00  2.5207525542082108e-10 7.4315459777812927e-10 0.0000000000000000e+00  -1.0626145756583782e-10 4.1656518334718885e-10 0.0000000000000000e+00  -1.6909718800111403e-10 2.9772619129507005e-10 0.0000000000000000e+00  -2.0113413483163827e-10 -7.5116964026552898e-11 0.0000000000000000e+00  -1.3046697074926670e-10 -1.6992542363507117e-10 0.0000000000000000e+00  -5.7232951037703184e-13 -8.3618810977013022e-11 0.0000000000000000e+00  3.4335866274778752e-14 4.3849105771654502e-13 0.0000000000000000e+00  -1.7290659313565618e-11 1.0721744766835289e-10 0.0000000000000000e+00  2.7824855320709357e-09 1.9452521895621471e-10 0.0000000000000000e+00  1.1938118449115633e-08 -6.9674028336409498e-10 0.0000000000000000e+00  6.4239461860104637e-07 -7.8682855832966953e-08 0.0000000000000000e+00  1.1587611605092815e-06 -1.0942046727899752e-07 0.0000000000000000e+00  1.0907196848902795e-05 2.0121343286305315e-06 0.0000000000000000e+00  1.3418175276652119e-05 -2.3957507208629440e-06 0.0000000000000000e+00  3.6455469141099070e-06 -4.5060064868011965e-07 0.0000000000000000e+00  2.0384593738166460e-06 2.6678648956225189e-07 0.0000000000000000e+00  1.0082726799159815e-06 4.5567655198503404e-07 0.0000000000000000e+00  6.7695439119918920e-07 4.5974503800662599e-07 0.0000000000000000e+00  1.1131748940912613e-07 2.8522382717102444e-07 0.0000000000000000e+00  1.0239641433187636e-07 -8.4945916345577145e-08 0.0000000000000000e+00  1.4140728998085979e-05 -8.9421515485702981e-07 0.0000000000000000e+00  1.2818179690029030e-04 -2.2220016829653764e-05 0.0000000000000000e+00  9.6032580237633025e-04 1.2232286499342927e-04 0.0000000000000000e+00  4.9888714583828505e-03 5.0629563707668788e-04 0.0000000000000000e+00  2.0597594724321943e-02 -2.3906487271446311e-05 0.0000000000000000e+00  3.2764434107458287e-02 -1.5284104180148660e-03 0.0000000000000000e+00  3.8276208235344326e-02 -1.7722002725736989e-03 0.0000000000000000e+00  4.4080345624982635e-02 3.5672884750468953e-04 0.0000000000000000e+00  4.6389177040834471e-02 4.8017534004283189e-04 0.0000000000000000e+00  2.7738604779111182e-02 -2.9904923557511629e-03 0.0000000000000000e+00  3.3170531330528092e-03 -1.0580887235280532e-03 0.0000000000000000e+00  1.0118299104248426e-03 -3.9918226150455237e-04 0.0000000000000000e+00  4.8258874346022811e-04 -2.1076658865699300e-04 0.0000000000000000e+00  3.5113585425308128e-04 -1.2977625308110283e-04 0.0000000000000000e+00  3.0897945591078208e-04 -1.0483933262069485e-04 0.0000000000000000e+00  2.7959042244222353e-04 -8.9081245731338973e-05 0.0000000000000000e+00  2.0174944720177632e-01 -2.9758557865463633e-02 0.0000000000000000e+00  1.9704892141426800e-01 -9.1010650609298048e-03 0.0000000000000000e+00  1.9704476797274650e-01 -1.4318600921541943e-03 0.0000000000000000e+00  1.9655513267079072e-01 -8.2477123765622916e-05 0.0000000000000000e+00  1.9672894171113225e-01 -6.2364865844637159e-05 0.0000000000000000e+00  1.9669427431171688e-01 4.0198878416504761e-05 0.0000000000000000e+00  1.9708775498839448e-01 1.3920579824118371e-03 0.0000000000000000e+00  1.9725766356525448e-01 9.1182302761743730e-03 0.0000000000000000e+00  2.0150574893876697e-01 2.9989834439051961e-02 0.0000000000000000e+00  1.2698718247453208e-01 4.0863528514331213e-02 0.0000000000000000e+00  5.7629773920072055e-02 1.9207062493831261e-02 0.0000000000000000e+00  1.4616545085276118e-02 4.6011906867276485e-03 0.0000000000000000e+00  8.8034065030259570e-04 2.7709056077840637e-04 0.0000000000000000e+00  1.3488658886881797e-05 4.1308989781865777e-06 0.0000000000000000e+00  1.6353061750953746e-07 3.6601647010212096e-08 0.0000000000000000e+00  7.8318016565145259e-10 -2.2152704884107204e-09 0.0000000000000000e+00  3.7472898365262079e-11 -7.3896665752961294e-11 0.0000000000000000e+00  6.8563806043007138e-13 -1.5130300215406754e-12 0.0000000000000000e+00  8.6339972944732910e-14 -5.1067586757240443e-13 0.0000000000000000e+00  3.5149999939219999e-11 4.8317623286636654e-11 0.0000000000000000e+00  5.9321028377385797e-10 3.2009247314499826e-09 0.0000000000000000e+00  4.8893309319018537e-08 7.5835880677706951e-08 0.0000000000000000e+00  7.7277708090790716e-06 -2.1056864710065947e-06 0.0000000000000000e+00  7.7943880412629867e-04 -2.4275010516845377e-04 0.0000000000000000e+00  1.4646174172674048e-02 -4.4813985432737187e-03 0.0000000000000000e+00  5.7828316767653591e-02 -1.9648447538071663e-02 0.0000000000000000e+00  1.2694110581923498e-01 -4.0770305699012022e-02 0.0000000000000000e+00  0.0000000000000000e+00 0.0000000000000000e+00 0.0000000000000000e+00  0.0000000000000000e+00 0.0000000000000000e+00 0.0000000000000000e+00  0.0000000000000000e+00 0.0000000000000000e+00 0.0000000000000000e+00  0.0000000000000000e+00 0.0000000000000000e+00 0.0000000000000000e+00  0.0000000000000000e+00 0.0000000000000000e+00 0.0000000000000000e+00  0.0000000000000000e+00 0.0000000000000000e+00 0.0000000000000000e+00  0.0000000000000000e+00 0.0000000000000000e+00 0.0000000000000000e+00  0.0000000000000000e+00 0.0000000000000000e+00 0.0000000000000000e+00  0.0000000000000000e+00 0.0000000000000000e+00 0.0000000000000000e+00  3.6554687723116196e-04 1.2602472801436252e-05 0.0000000000000000e+00  3.1641433165238812e-02 -2.3989418206141455e-04 0.0000000000000000e+00  6.0346588886421747e-12 1.9623416613743567e-12 0.0000000000000000e+00  5.5979198660972549e-11 -8.5814826405569698e-12 0.0000000000000000e+00  2.3117512657418311e-02 7.7439487289911136e-04 0.0000000000000000e+00  2.8895701312855787e-04 1.5103044238353797e-05 0.0000000000000000e+00  8.0271878373563962e-02 1.5727421437023342e-04 0.0000000000000000e+00  1.6195891372422281e-05 -1.9464271337331428e-06 0.0000000000000000e+00  6.5601582352887168e-15 5.3311619204250013e-15 0.0000000000000000e+00  2.0270060583426968e-08 2.6766009930781530e-09 0.0000000000000000e+00  2.9042027122941245e-08 -6.8465854530958569e-09 0.0000000000000000e+00  1.1711694335107689e-13 -5.2918800134748640e-15 0.0000000000000000e+00  6.2597465824218549e-14 2.5062984900767905e-13 0.0000000000000000e+00  1.4808493975893730e-01 -3.1729749551980470e-02 0.0000000000000000e+00  1.4738099829344156e-01 3.3237168054598025e-02 0.0000000000000000e+00  -2.2319721032477251e-10 -1.3820327629159193e-09 0.0000000000000000e+00  1.6309293600175651e-05 -1.8080481046223794e-06 0.0000000000000000e+00  3.9908064570160555e-06 -4.9862502111961048e-07 0.0000000000000000e+00  3.1629279321995312e-07 2.7248099410816380e-07 0.0000000000000000e+00  1.8608095217734840e-04 -1.5944852619495916e-06 0.0000000000000000e+00  1.6907707190324946e-10 6.2479249056664705e-10 0.0000000000000000e+00  2.2535402980839383e-04 -6.5356727952196205e-05 0.0000000000000000e+00  3.4995652116992735e-13 -2.6306699813139005e-13 0.0000000000000000e+00  6.9499941714012317e-02 -5.6268994063309197e-03 0.0000000000000000e+00  2.7855133100618758e-03 -1.4782794221801992e-04 0.0000000000000000e+00  8.1836043653757823e-02 -1.3384506515306212e-04 0.0000000000000000e+00  5.0817390950803178e-03 -3.0401711718479767e-05 0.0000000000000000e+00  8.6966112472816326e-02 1.7791404051325792e-03 0.0000000000000000e+00  1.7923504451814983e-11 4.1888153550238662e-12 0.0000000000000000e+00  8.0898836983283256e-11 -1.2176602631442281e-11 0.0000000000000000e+00  6.9339486644771507e-06 1.1082632262605415e-06 0.0000000000000000e+00  7.3845841952167937e-02 1.0844592777188695e-02 0.0000000000000000e+00  1.3923435940554231e-12 1.3861010374879541e-12 0.0000000000000000e+00  3.8088018423999411e-03 3.0152458304979205e-04 0.0000000000000000e+00  7.7877848923665121e-03 -1.9893685613937566e-05 0.0000000000000000e+00  1.3449167728059460e-09 -5.7288636034817499e-10 0.0000000000000000e+00  5.7787209050915355e-10 2.3465812341358951e-10 0.0000000000000000e+00  3.5848702013039770e-14 6.5635536679482793e-15 0.0000000000000000e+00  4.1435571082320798e-13 -4.7799016927484191e-14 0.0000000000000000e+00  1.0489055093646875e-06 -1.2695864765055233e-07 0.0000000000000000e+00  1.4157521662698935e-01 1.7284408244788898e-05 0.0000000000000000e+00  5.0210178734347538e-04 -1.0427482646813915e-05 0.0000000000000000e+00  6.2443215490991986e-02 8.4563505582874567e-04 0.0000000000000000e+00  3.1831160841554830e-02 4.9570373802507390e-04 0.0000000000000000e+00  5.7611193316924059e-06 -4.5212921736149416e-07 0.0000000000000000e+00  4.0839744518088754e-16 -3.8046469547310473e-17 0.0000000000000000e+00  9.9639419655783093e-08 7.8428797910673436e-09 0.0000000000000000e+00  2.6281431614473918e-08 -8.3596882360413428e-09 0.0000000000000000e+00  -9.2723215909668051e-11 -3.7686110865479583e-10 0.0000000000000000e+00  1.1121539361195328e-04 -2.7478198109714823e-06 0.0000000000000000e+00  -1.2445207171245139e-10 5.2888916618320486e-10 0.0000000000000000e+00  4.8496624424341197e-05 -2.0703779803338266e-06 0.0000000000000000e+00  3.8840243412126007e-05 -3.6382245275258011e-06 0.0000000000000000e+00  1.4230213944334760e-06 2.8505612473310035e-07 0.0000000000000000e+00  8.3634519615219368e-06 -1.2172245940987806e-06 0.0000000000000000e+00  6.8335510334326042e-08 1.1753532729187087e-07 0.0000000000000000e+00  2.7870490601462038e-04 4.9614344939005147e-06 0.0000000000000000e+00  5.3237317501620075e-06 -8.7789805320620405e-07 0.0000000000000000e+00  1.4088006859366628e-04 -7.4142194753426186e-06 0.0000000000000000e+00  2.4938842719813730e-06 -1.6404713029221997e-07 0.0000000000000000e+00  2.0005141070721640e-07 2.4658006009974028e-07 0.0000000000000000e+00  5.4356366485089794e-07 2.3169246832201867e-07 0.0000000000000000e+00  -2.8669004130858719e-11 3.6907883072253186e-10 0.0000000000000000e+00  3.7212230070621223e-10 7.2824138652498193e-10 0.0000000000000000e+00  9.3200126844050490e-11 5.3755467323542390e-10 0.0000000000000000e+00  1.7470503647004813e-04 -4.2946070922311283e-05 0.0000000000000000e+00  2.5348694699696975e-04 -7.8449773660382361e-05 0.0000000000000000e+00  2.2873515241619282e-04 -6.3349937088452184e-05 0.0000000000000000e+00  1.8814646866014703e-03 -4.6566030926425545e-05 0.0000000000000000e+00  1.0330395258365786e-01 -1.8381960696137606e-03 0.0000000000000000e+00  1.8705662817270748e-14 8.8495042205780039e-15 0.0000000000000000e+00  1.2062803915405548e-01 1.9308303935321861e-04 0.0000000000000000e+00  1.2857237074616196e-13 -4.4876014447617946e-14 0.0000000000000000e+00  3.0309358569523527e-02 -3.2239908261970465e-03 0.0000000000000000e+00  1.1604994372650569e-01 -7.2786290405924288e-05 0.0000000000000000e+00  2.9352678629315485e-02 1.8067950293702601e-04 0.0000000000000000e+00  1.6080134410030542e-10 4.6797859281626740e-11 0.0000000000000000e+00  4.8988566781853122e-15 -4.0010107424281909e-15 0.0000000000000000e+00  1.9455728600783334e-09 5.1539824865234539e-11 0.0000000000000000e+00  1.9059026528113177e-13 -6.9892340433969210e-14 0.0000000000000000e+00  1.1027931666340429e-01 8.3818725088606206e-03 0.0000000000000000e+00  4.0712564497592758e-04 -1.5250593757714487e-05 0.0000000000000000e+00  1.8760182920901403e-13 6.2399858167043952e-14 0.0000000000000000e+00  2.1666798427493133e-05 8.2870305965422218e-07 0.0000000000000000e+00  1.3028494515794065e-01 -1.5452822534270445e-02 0.0000000000000000e+00  5.3430812433602918e-05 9.5007510387234307e-06 0.0000000000000000e+00  4.8798880553071449e-09 -4.9171285677829940e-10 0.0000000000000000e+00  4.4286928266068261e-02 -1.7024676579915006e-05 0.0000000000000000e+00  2.5628365798084408e-02 3.6423652713831818e-03 0.0000000000000000e+00  8.2318724797521941e-08 2.8308603517039785e-08 0.0000000000000000e+00  2.2480286555860235e-13 -3.5462344199432427e-13 0.0000000000000000e+00  8.5419674109540669e-02 -1.7396853987631959e-02 0.0000000000000000e+00  5.6525786285142507e-04 -3.1876850375106944e-05 0.0000000000000000e+00  2.5003674554364913e-11 -3.8324021760692427e-11 0.0000000000000000e+00  1.0669057122532968e-09 -2.2322181576100859e-10 0.0000000000000000e+00  8.2264780008392840e-07 -1.1651236350959086e-07 0.0000000000000000e+00  4.1202761554782327e-03 -4.4001944650645482e-05 0.0000000000000000e+00  9.8397506862282784e-13 2.8069329870486712e-13 0.0000000000000000e+00  1.5623889424288184e-11 3.9220858987731935e-11 0.0000000000000000e+00  3.9250226341792573e-02 1.7467073697798295e-03 0.0000000000000000e+00  1.7227403296720867e-03 3.9285403324408133e-05 0.0000000000000000e+00  2.8551855245042831e-13 4.9545476337303249e-13 0.0000000000000000e+00  1.3175069668504368e-11 8.3984689948379710e-12 0.0000000000000000e+00  8.9334170624085357e-03 3.5360020565831349e-04 0.0000000000000000e+00  2.6663983725980140e-03 -1.5450369685234019e-04 0.0000000000000000e+00  1.1895965052233233e-02 -6.7423168103631541e-04 0.0000000000000000e+00  1.2585446612970799e-06 -4.9905741874615072e-07 0.0000000000000000e+00  5.9930653719869276e-02 -6.0771584311303207e-04 0.0000000000000000e+00  8.2430326585282186e-08 -2.0083188717745437e-08 0.0000000000000000e+00  7.5339827615075896e-09 -6.6286952809658369e-09 0.0000000000000000e+00  1.5933086011874886e-09 1.8575827343982757e-09 0.0000000000000000e+00  4.1979768739761801e-04 -5.0928153395908434e-05 0.0000000000000000e+00  2.7859416550324853e-06 2.1670720354555971e-08 0.0000000000000000e+00  7.1107390400239165e-07 4.3955678994156935e-08 0.0000000000000000e+00  6.5998853015479986e-04 2.5167603925003886e-05 0.000