<?xml version="1.0"?>
<VTKFile type="UnstructuredGrid"  version="0.1"  >
<UnstructuredGrid>
<Piece  NumberOfPoints="2868" NumberOfCells="5400">
<Points>
<DataArray  type="Float64"  NumberOfComponents="3"  format="ascii">0.534923 0.326073 0  0.510642 0.314196 0  0.466125 0.293082 0  0.436448 0.281205 0  0.409468 0.275927 0  0.368998 0.270648 0  0.35281 0.275927 0  0.381139 0.302319 0  0.405421 0.326073 0  0.410817 0.33531 0  0.408119 0.349826 0  0.400025 0.357744 0  0.375743 0.368301 0  0.329878 0.392055 0  0.297502 0.432963 0  0.282663 0.476511 0  0.285361 0.524018 0  0.298851 0.572845 0  0.317737 0.6045160000000001 0  0.337972 0.6361869999999999 0  0.360904 0.674457 0  0.368998 0.69953 0  0.359555 0.7219640000000001 0  0.360904 0.757594 0  0.370347 0.766831 0  0.381139 0.762872 0  0.390582 0.741758 0  0.404072 0.720644 0  0.424307 0.707448 0  0.447239 0.702169 0  0.480964 0.704808 0  0.479615 0.6889729999999999 0  0.468823 0.675776 0  0.447239 0.6691780000000001 0  0.428354 0.6691780000000001 0  0.410817 0.6639 0  0.404072 0.653343 0  0.395978 0.628269 0  0.387884 0.59132 0  0.389233 0.576804 0  0.397327 0.557009 0  0.410817 0.547772 0  0.424307 0.546452 0  0.437797 0.55305 0  0.44589 0.5662469999999999 0  0.441843 0.582082 0  0.439145 0.5979179999999999 0  0.449937 0.609795 0  0.468823 0.603196 0  0.479615 0.59 0  0.489058 0.570205 0  0.494454 0.546452 0  0.505246 0.522699 0  0.522783 0.509502 0  0.55246 0.494986 0  0.586185 0.484429 0  0.615863 0.48047 0  0.64554 0.473872 0  0.6671240000000001 0.461995 0  0.683312 0.451438 0  0.696802 0.435603 0  0.703547 0.417128 0  0.7116400000000001 0.393374 0  0.7183850000000001 0.37226 0  0.7251300000000001 0.364342 0  0.739969 0.353785 0  0.7453650000000001 0.344548 0  0.7453650000000001 0.327393 0  0.737271 0.318155 0  0.7183850000000001 0.316835 0  0.7008490000000001 0.319475 0  0.677916 0.318155 0  0.650936 0.316835 0  0.610467 0.318155 0  0.57944 0.324753 0  0.559205 0.328712 0  0.5389699999999999 0.326073 0  1 1 0  1 0 0  0 0 0  0 1 0  0.532238 0.32476 0  0.528748 0.323052 0  0.52421 0.320833 0  0.518311 0.317947 0  0.503447 0.310783 0  0.494093 0.306347 0  0.481933 0.30058 0  0.452151 0.28749 0  0.392327 0.273691 0  0.379141 0.271971 0  0.360474 0.283066 0  0.369797 0.291752 0  0.391424 0.31238 0  0.399335 0.32012 0  0.40958 0.341964 0  0.393939 0.36039 0  0.386028 0.36383 0  0.364248 0.374254 0  0.349304 0.381994 0  0.315801 0.409841 0  0.292986 0.551616 0  0.350934 0.657818 0  0.360127 0.737055 0  0.360566 0.748664 0  0.385245 0.753692 0  0.396447 0.732578 0  0.466301 0.703661 0  0.459439 0.672908 0  0.418442 0.666195 0  0.400553 0.642441 0  0.39255 0.612619 0  0.389913 0.60058 0  0.392752 0.568197 0  0.444131 0.573132 0  0.458149 0.606926 0  0.5005540000000001 0.533026 0  0.571522 0.489019 0  0.632637 0.476741 0  0.689177 0.444553 0  0.708121 0.403702 0  0.715453 0.38144 0  0.732406 0.359166 0  0.7453650000000001 0.337089 0  0.72906 0.317581 0  0.629879 0.317522 0  0.59293 0.321884 0  0.568003 0.326991 0  0.55202 0.327775 0  0.546493 0.327054 0  0.542241 0.326499 0  1 0.9 0  1 0.8 0  1 0.7 0  1 0.6 0  1 0.5 0  1 0.4 0  1 0.3 0  1 0.2 0  1 0.1 0  0.9 0 0  0.8 0 0  0.7 0 0  0.6 0 0  0.5 0 0  0.4 0 0  0.3 0 0  0.2 0 0  0.1 0 0  0.1 1 0  0.2 1 0  0.3 1 0  0.4 1 0  0.5 1 0  0.6 1 0  0.7 1 0  0.8 1 0  0.9 1 0  0 0.1 0  0 0.2 0  0 0.3 0  0 0.4 0  0 0.5 0  0 0.6 0  0 0.7 0  0 0.8 0  0 0.9 0  0.535686 0.5031910000000001 0  0.753987 0.733359 0  0.167145 0.741436 0  0.173378 0.257204 0  0.733497 0.159862 0  0.554096 0.15788 0  0.849187 0.479053 0  0.488793 0.838452 0  0.138507 0.5592 0  0.30686 0.154944 0  0.348904 0.890523 0  0.058006 0.065099 0  0.06984899999999999 0.937917 0  0.93633 0.939704 0  0.934625 0.053613 0  0.343397 0.333452 0  0.473272 0.639943 0  0.433266 0.638072 0  0.415174 0.58269 0  0.533435 0.545042 0  0.390848 0.340652 0  0.53655 0.320242 0  0.127966 0.393775 0  0.83861 0.850455 0  0.635242 0.8551299999999999 0  0.852158 0.633441 0  0.653427 0.626848 0  0.861226 0.24292 0  0.166128 0.12976 0  0.216875 0.8698709999999999 0  0.458305 0.11179 0  0.84446 0.101633 0  0.202024 0.642528 0  0.644825 0.115855 0  0.671342 0.218358 0  0.251354 0.286186 0  0.262388 0.75153 0  0.063044 0.751571 0  0.068189 0.242962 0  0.435781 0.9053949999999999 0  0.934144 0.451133 0  0.568393 0.237622 0  0.814984 0.395506 0  0.752951 0.517227 0  0.456254 0.780699 0  0.073352 0.531116 0  0.337731 0.206071 0  0.363213 0.960371 0  0.330742 0.363592 0  0.516613 0.55705 0  0.369057 0.332992 0  0.500926 0.617309 0  0.498004 0.665534 0  0.412142 0.61178 0  0.454233 0.6366039999999999 0  0.422782 0.567496 0  0.541193 0.5214800000000001 0  0.439761 0.65557 0  0.5163 0.533672 0  0.414775 0.64562 0  0.40073 0.576135 0  0.430362 0.5880339999999999 0  0.385432 0.351492 0  0.400298 0.335397 0  0.398325 0.348194 0  0.528702 0.314885 0  0.540814 0.322334 0  0.534477 0.322953 0  0.619095 0.743583 0  0.885162 0.737972 0  0.08076 0.668849 0  0.90734 0.36634 0  0.09468699999999999 0.868937 0  0.759838 0.912152 0  0.901518 0.540898 0  0.747285 0.607479 0  0.229182 0.071641 0  0.06915399999999999 0.450091 0  0.244775 0.203309 0  0.076534 0.331755 0  0.897847 0.167826 0  0.578909 0.911415 0  0.07713299999999999 0.146341 0  0.477215 0.203448 0  0.922631 0.869341 0  0.517415 0.074785 0  0.297026 0.827793 0  0.7832710000000001 0.246505 0  0.74519 0.061079 0  0.36033 0.069068 0  0.210313 0.475228 0  0.859426 0.928758 0  0.5745479999999999 0.609182 0  0.243069 0.383398 0  0.283099 0.934598 0  0.417416 0.843141 0  0.643942 0.553164 0  0.112687 0.079336 0  0.281357 0.658386 0  0.765043 0.436177 0  0.611361 0.198486 0  0.234496 0.58911 0  0.206479 0.702638 0  0.679608 0.155818 0  0.62682 0.259978 0  0.690538 0.264164 0  0.448938 0.956308 0  0.808154 0.328403 0  0.379583 0.91913 0  0.308083 0.297769 0  0.312358 0.730249 0  0.563101 0.278576 0  0.435597 0.746198 0  0.385475 0.225229 0  0.572248 0.518034 0  0.357864 0.35422 0  0.497647 0.641694 0  0.458101 0.655768 0  0.360474 0.310727 0  0.467038 0.620139 0  0.47798 0.659909 0  0.41102 0.628072 0  0.48324 0.609015 0  0.427544 0.617941 0  0.388633 0.328253 0  0.405336 0.599404 0  0.408351 0.565178 0  0.42395 0.600985 0  0.431562 0.576523 0  0.424905 0.6551979999999999 0  0.398064 0.58782 0  0.427739 0.557934 0  0.5192909999999999 0.303443 0  0.53142 0.320293 0  0.5449000000000001 0.323642 0  0.537166 0.323513 0  0.153974 0.920841 0  0.9181859999999999 0.67343 0  0.759946 0.820588 0  0.5375259999999999 0.783091 0  0.816532 0.545843 0  0.813991 0.178083 0  0.836774 0.702023 0  0.149815 0.318856 0  0.662287 0.923338 0  0.680146 0.791192 0  0.708961 0.663172 0  0.9372779999999999 0.287318 0  0.574622 0.6881660000000001 0  0.5894740000000001 0.076262 0  0.502822 0.926683 0  0.222269 0.811068 0  0.380457 0.164786 0  0.15321 0.684154 0  0.458063 0.051413 0  0.161702 0.056026 0  0.199351 0.198818 0  0.298946 0.09553200000000001 0  0.902465 0.795949 0  0.121139 0.791477 0  0.906269 0.112287 0  0.056109 0.822332 0  0.512172 0.13237 0  0.940964 0.741805 0  0.888887 0.408777 0  0.354543 0.825964 0  0.808736 0.068638 0  0.068507 0.394071 0  0.719105 0.563843 0  0.247287 0.149664 0  0.293062 0.237128 0  0.240524 0.434997 0  0.141255 0.623289 0  0.945202 0.160621 0  0.502914 0.247629 0  0.144669 0.480811 0  0.665025 0.060817 0  0.728047 0.224344 0  0.861995 0.313312 0  0.200068 0.534235 0  0.253262 0.965623 0  0.893804 0.49307 0  0.604391 0.572456 0  0.947088 0.345347 0  0.439372 0.227307 0  0.629847 0.159823 0  0.273405 0.880181 0  0.302744 0.776823 0  0.781502 0.295365 0  0.275342 0.349602 0  0.7283849999999999 0.472798 0  0.229136 0.246478 0  0.807794 0.480346 0  0.709476 0.112786 0  0.275506 0.694991 0  0.771674 0.394419 0  0.449715 0.861802 0  0.419159 0.799696 0  0.674851 0.503139 0  0.280443 0.61016 0  0.572443 0.192538 0  0.393113 0.87525 0  0.405555 0.948428 0  0.330942 0.934103 0  0.540509 0.597101 0  0.312763 0.6689310000000001 0  0.254368 0.540179 0  0.595265 0.25915 0  0.606679 0.234099 0  0.657131 0.279138 0  0.722458 0.279478 0  0.333 0.308056 0  0.351529 0.246142 0  0.455714 0.7257940000000001 0  0.585239 0.295143 0  0.340062 0.72492 0  0.545593 0.293773 0  0.555449 0.545426 0  0.414311 0.737314 0  0.590854 0.502323 0  0.350507 0.368444 0  0.484423 0.625665 0  0.483899 0.674542 0  0.378137 0.317274 0  0.446416 0.646404 0  0.373532 0.347654 0  0.446876 0.619769 0  0.466106 0.666068 0  0.437545 0.609254 0  0.434988 0.565726 0  0.41462 0.656829 0  0.418803 0.556961 0  0.398425 0.327446 0  0.517803 0.310421 0  0.549516 0.322918 0  0.57701 0.842889 0  0.8291269999999999 0.773906 0  0.643235 0.684732 0  0.134281 0.207734 0  0.865997 0.055966 0  0.680959 0.723345 0  0.165229 0.8415550000000001 0  0.54558 0.959672 0  0.783726 0.656439 0  0.913315 0.595533 0  0.699439 0.860667 0  0.785839 0.125076 0  0.551673 0.037713 0  0.9200970000000001 0.223214 0  0.206406 0.299726 0  0.087064 0.596401 0  0.935644 0.394252 0  0.964557 0.252582 0  0.230124 0.928346 0  0.120579 0.271764 0  0.8572149999999999 0.524082 0  0.7670979999999999 0.5551469999999999 0  0.936094 0.507131 0  0.804064 0.59585 0  0.700565 0.608273 0  0.429773 0.174231 0  0.117746 0.727333 0  0.5389620000000001 0.730231 0  0.862761 0.359173 0  0.821444 0.284046 0  0.193552 0.35818 0  0.234923 0.505555 0  0.193209 0.421217 0  0.220144 0.755896 0  0.594015 0.131642 0  0.283813 0.195855 0  0.517519 0.213961 0  0.553509 0.639116 0  0.280391 0.378018 0  0.852183 0.436817 0  0.746983 0.197173 0  0.821806 0.221318 0  0.449853 0.828453 0  0.883758 0.453926 0  0.183484 0.589542 0  0.348384 0.129314 0  0.255254 0.838525 0  0.504849 0.798516 0  0.320344 0.863432 0  0.611669 0.525425 0  0.265864 0.804962 0  0.72056 0.521442 0  0.613372 0.6101220000000001 0  0.481262 0.881068 0  0.655778 0.191988 0  0.701921 0.196918 0  0.5658260000000001 0.5731810000000001 0  0.46914 0.240927 0  0.343219 0.173284 0  0.888786 0.278502 0  0.244113 0.6750930000000001 0  0.739546 0.417914 0  0.784023 0.355942 0  0.326805 0.265549 0  0.248616 0.6
[...]
<PointData  Vectors="f_21"> 
<DataArray  type="Float64"  Name="f_21"  NumberOfComponents="3" format="ascii">8.9164359808745564e-01 1.0601130287311585e-01 0.0000000000000000e+00  8.6824565573256707e-01 1.1667777922858266e-01 0.0000000000000000e+00  7.9002311476878073e-01 1.3527283523791531e-01 0.0000000000000000e+00  7.1625430679640789e-01 1.4203477633838443e-01 0.0000000000000000e+00  6.4373410729831571e-01 1.4131766438838342e-01 0.0000000000000000e+00  5.1198956558863207e-01 1.4981091982593284e-01 0.0000000000000000e+00  4.2798511074058837e-01 1.5463514742268378e-01 0.0000000000000000e+00  3.1648567602827077e-01 2.4966814782442448e-01 0.0000000000000000e+00  2.5805948967524633e-01 3.0652341312674902e-01 0.0000000000000000e+00  2.3586510104915170e-01 3.1962426667979343e-01 0.0000000000000000e+00  2.0041211315179108e-01 3.1310912232006083e-01 0.0000000000000000e+00  1.8068291484261784e-01 2.9303319072319450e-01 0.0000000000000000e+00  1.5501546898357077e-01 2.3087545322893815e-01 0.0000000000000000e+00  1.1148702156679714e-01 1.1815297827936645e-01 0.0000000000000000e+00  6.1400776109210305e-02 4.8534789802980052e-02 0.0000000000000000e+00  2.9804377159479173e-02 2.4926039412770306e-03 0.0000000000000000e+00  2.0239602844047459e-02 -4.0999530153202651e-02 0.0000000000000000e+00  3.2862012310163710e-02 -9.5180197529994362e-02 0.0000000000000000e+00  6.0224413399821132e-02 -1.4921430598764554e-01 0.0000000000000000e+00  1.0542686083443861e-01 -2.0825104617173371e-01 0.0000000000000000e+00  1.8236783723793173e-01 -2.7820664944077189e-01 0.0000000000000000e+00  2.4377337829586640e-01 -3.0529285767327924e-01 0.0000000000000000e+00  3.0500833012877565e-01 -2.8860411992595630e-01 0.0000000000000000e+00  4.7802896689496982e-01 -2.9680013688685652e-01 0.0000000000000000e+00  6.0747778092137883e-01 -3.1835003632658454e-01 0.0000000000000000e+00  7.1285121640912930e-01 -3.1223702528671654e-01 0.0000000000000000e+00  8.6300677467255527e-01 -2.9784464087070373e-01 0.0000000000000000e+00  9.3573993753302531e-01 -2.6173310716595921e-01 0.0000000000000000e+00  9.6643687514440846e-01 -2.2365008866733949e-01 0.0000000000000000e+00  9.8024865540107109e-01 -1.9642854952326785e-01 0.0000000000000000e+00  1.0243048586186472e+00 -1.9662271334809395e-01 0.0000000000000000e+00  1.0958157734742318e+00 -2.0981271005931740e-01 0.0000000000000000e+00  1.1324687230889556e+00 -2.2204736375317388e-01 0.0000000000000000e+00  1.1476015970428555e+00 -2.4175679538912265e-01 0.0000000000000000e+00  1.1475066268697041e+00 -2.6334145604928266e-01 0.0000000000000000e+00  1.1535489225448916e+00 -2.8624370493923307e-01 0.0000000000000000e+00  1.1673406371341892e+00 -2.9575023675967460e-01 0.0000000000000000e+00  1.2028862034423515e+00 -3.0966060635668596e-01 0.0000000000000000e+00  1.2642100290209335e+00 -3.2596309198985685e-01 0.0000000000000000e+00  1.2899096107262009e+00 -3.2400662903669863e-01 0.0000000000000000e+00  1.3250346319782138e+00 -3.0994674285733376e-01 0.0000000000000000e+00  1.3411737444089791e+00 -2.8651532856828182e-01 0.0000000000000000e+00  1.3434279131487508e+00 -2.6342289580356321e-01 0.0000000000000000e+00  1.3321982415653175e+00 -2.4043469820445892e-01 0.0000000000000000e+00  1.3093620589674801e+00 -2.2639668696922735e-01 0.0000000000000000e+00  1.2808641198934931e+00 -2.3405487686496113e-01 0.0000000000000000e+00  1.2504849239095643e+00 -2.4261561891743016e-01 0.0000000000000000e+00  1.2276067311816776e+00 -2.3389503004661846e-01 0.0000000000000000e+00  1.2332598111497348e+00 -2.1590958050038800e-01 0.0000000000000000e+00  1.2491607960584945e+00 -2.0486651584950163e-01 0.0000000000000000e+00  1.2729817331771134e+00 -1.9557724977994337e-01 0.0000000000000000e+00  1.3009928405383520e+00 -1.9054684679625317e-01 0.0000000000000000e+00  1.3283445555634512e+00 -1.7904124763605081e-01 0.0000000000000000e+00  1.3437699009675244e+00 -1.6008744225067034e-01 0.0000000000000000e+00  1.3622873585167652e+00 -1.2838224620586203e-01 0.0000000000000000e+00  1.3776661591955155e+00 -9.2333412815473415e-02 0.0000000000000000e+00  1.3858344151293041e+00 -6.1308419400310725e-02 0.0000000000000000e+00  1.3969358583246265e+00 -3.1232797625631473e-02 0.0000000000000000e+00  1.4099230589188736e+00 -8.7158353377301181e-03 0.0000000000000000e+00  1.4171304791940214e+00 1.1113458941835821e-02 0.0000000000000000e+00  1.4214236406929130e+00 3.2357542369380557e-02 0.0000000000000000e+00  1.4180120951129371e+00 4.9743737644406961e-02 0.0000000000000000e+00  1.4060878607909633e+00 6.8206438597365707e-02 0.0000000000000000e+00  1.3906761705807067e+00 7.8000915064793633e-02 0.0000000000000000e+00  1.3856973892786337e+00 7.9752973206152766e-02 0.0000000000000000e+00  1.3714384806748057e+00 9.1791876561543612e-02 0.0000000000000000e+00  1.3476540430757249e+00 1.0299271970501818e-01 0.0000000000000000e+00  1.2804369933937685e+00 1.1986934500661760e-01 0.0000000000000000e+00  1.2177859819444006e+00 1.3033145188025108e-01 0.0000000000000000e+00  1.1507943151026225e+00 1.2665861339733037e-01 0.0000000000000000e+00  1.1126046765225905e+00 1.2134984910836580e-01 0.0000000000000000e+00  1.0737875871152653e+00 1.2134241370939534e-01 0.0000000000000000e+00  1.0252702250964680e+00 1.2154322340847459e-01 0.0000000000000000e+00  9.5691410661511134e-01 1.1639341513960474e-01 0.0000000000000000e+00  9.1603353254749609e-01 1.0656199276500644e-01 0.0000000000000000e+00  9.0256330162883058e-01 1.0272312723838446e-01 0.0000000000000000e+00  8.9293838840969852e-01 1.0502531650623766e-01 0.0000000000000000e+00  1.2546276468838171e+00 3.1747941956060427e-02 0.0000000000000000e+00  1.3170478331440694e+00 1.4467183376523496e-01 0.0000000000000000e+00  0.0000000000000000e+00 0.0000000000000000e+00 0.0000000000000000e+00  0.0000000000000000e+00 0.0000000000000000e+00 0.0000000000000000e+00  8.9023397605555254e-01 1.0712577892867384e-01 0.0000000000000000e+00  8.8765153076207004e-01 1.0862616903083089e-01 0.0000000000000000e+00  8.8358308245818629e-01 1.1059584088265009e-01 0.0000000000000000e+00  8.7750123822897153e-01 1.1324810169658929e-01 0.0000000000000000e+00  8.5852583116759595e-01 1.1981451389380006e-01 0.0000000000000000e+00  8.4427453071967240e-01 1.2396046074990154e-01 0.0000000000000000e+00  8.2326422645009412e-01 1.2907930992816571e-01 0.0000000000000000e+00  7.5824651010573918e-01 1.3933196387956670e-01 0.0000000000000000e+00  5.9677040172260665e-01 1.4194438165912057e-01 0.0000000000000000e+00  5.5606081753503422e-01 1.4474231280609506e-01 0.0000000000000000e+00  3.8156671700830513e-01 1.9521565080683384e-01 0.0000000000000000e+00  3.4748835469442962e-01 2.2223080067627984e-01 0.0000000000000000e+00  2.9078873576176573e-01 2.7331770302380887e-01 0.0000000000000000e+00  2.7224500945424335e-01 2.9196582628042872e-01 0.0000000000000000e+00  2.1972468235066506e-01 3.1665968715781589e-01 0.0000000000000000e+00  1.7403164018404141e-01 2.7766479202968536e-01 0.0000000000000000e+00  1.6550534951447654e-01 2.5745793387105353e-01 0.0000000000000000e+00  1.4207451608025803e-01 2.0122405791405507e-01 0.0000000000000000e+00  1.2745454680859597e-01 1.6401929930039708e-01 0.0000000000000000e+00  8.7086278178296256e-02 8.6351834416360587e-02 0.0000000000000000e+00  2.4701870069194776e-02 -6.9457941173084986e-02 0.0000000000000000e+00  1.4587340033317717e-01 -2.4787392263770006e-01 0.0000000000000000e+00  3.5918044130763854e-01 -2.9746475861204158e-01 0.0000000000000000e+00  4.1446827374401896e-01 -3.0237330155775005e-01 0.0000000000000000e+00  7.9975611152160775e-01 -3.1210738393889431e-01 0.0000000000000000e+00  8.9951948186740394e-01 -2.8099309294537084e-01 0.0000000000000000e+00  9.9363874198141366e-01 -1.8791100832402283e-01 0.0000000000000000e+00  1.1408098196145695e+00 -2.2967670280844987e-01 0.0000000000000000e+00  1.1508151285005785e+00 -2.7605804137113421e-01 0.0000000000000000e+00  1.1821271664363009e+00 -3.0139694783727838e-01 0.0000000000000000e+00  1.2275215019882215e+00 -3.1650980495040565e-01 0.0000000000000000e+00  1.2479679608920446e+00 -3.2195034842084747e-01 0.0000000000000000e+00  1.3052484711532322e+00 -3.1793755011434932e-01 0.0000000000000000e+00  1.2971478605998021e+00 -2.2953615616182460e-01 0.0000000000000000e+00  1.2293172687169016e+00 -2.2634945966655784e-01 0.0000000000000000e+00  1.3165357261676243e+00 -1.8408307689302142e-01 0.0000000000000000e+00  1.3709297977630019e+00 -1.0802142286022906e-01 0.0000000000000000e+00  1.3922212592130692e+00 -4.4188949574365741e-02 0.0000000000000000e+00  1.4199778920424471e+00 2.0305785111295722e-02 0.0000000000000000e+00  1.4123082947548493e+00 6.0831362490031911e-02 0.0000000000000000e+00  1.3973508989792303e+00 7.5045570811082651e-02 0.0000000000000000e+00  1.3801687800780595e+00 8.3919693502868001e-02 0.0000000000000000e+00  1.3223267254322355e+00 1.1560539942671240e-01 0.0000000000000000e+00  1.1845904200094057e+00 1.2818358182719605e-01 0.0000000000000000e+00  9.8852651174703154e-01 1.1899031822043843e-01 0.0000000000000000e+00  9.3057469985153218e-01 1.1080232064648374e-01 0.0000000000000000e+00  9.0712559349889921e-01 1.0381737043979043e-01 0.0000000000000000e+00  8.9965469588856295e-01 1.0299689656526027e-01 0.0000000000000000e+00  8.9683692442047158e-01 1.0370767430222624e-01 0.0000000000000000e+00  8.9461993122124739e-01 1.0439088691894108e-01 0.0000000000000000e+00  1.3295423310982866e+00 6.0788026284782498e-02 0.0000000000000000e+00  1.4099980205401763e+00 7.7777535506020110e-02 0.0000000000000000e+00  1.4846879731522020e+00 7.9748615796607414e-02 0.0000000000000000e+00  1.5562453235692650e+00 6.4947524532656203e-02 0.0000000000000000e+00  1.5949415055873526e+00 2.7433095051177230e-02 0.0000000000000000e+00  1.5661895635611345e+00 -9.3668696623010195e-03 0.0000000000000000e+00  1.4753082636010610e+00 -8.8602922882812137e-03 0.0000000000000000e+00  1.3874511153543549e+00 4.3202516668785745e-02 0.0000000000000000e+00  1.3435902808341655e+00 1.0408898791973384e-01 0.0000000000000000e+00  1.2148504559726510e+00 1.7655449253130165e-01 0.0000000000000000e+00  1.1083268917208038e+00 2.1313732045262046e-01 0.0000000000000000e+00  1.0034218337164180e+00 2.4423350117738640e-01 0.0000000000000000e+00  9.0460055740461809e-01 2.6361690781600250e-01 0.0000000000000000e+00  8.1212920843900971e-01 2.6282123387435563e-01 0.0000000000000000e+00  7.0875685180986847e-01 2.3528595074059067e-01 0.0000000000000000e+00  5.7500234974319941e-01 1.8375895509555068e-01 0.0000000000000000e+00  4.0130518400590570e-01 1.3033872292222085e-01 0.0000000000000000e+00  2.0846712685771165e-01 8.9019627507693697e-02 0.0000000000000000e+00  2.2230066295659806e-01 -9.6156041527013597e-02 0.0000000000000000e+00  4.2703722033857394e-01 -1.8037272243209590e-01 0.0000000000000000e+00  5.8794017091616435e-01 -2.9641293011013281e-01 0.0000000000000000e+00  6.7927744696877979e-01 -3.5192698659773225e-01 0.0000000000000000e+00  7.5726719344075910e-01 -3.0641424952186247e-01 0.0000000000000000e+00  8.5442907558204095e-01 -2.2577464965863797e-01 0.0000000000000000e+00  9.6240922930985673e-01 -1.4882738010438190e-01 0.0000000000000000e+00  1.0681399306212653e+00 -8.9221736738264598e-02 0.0000000000000000e+00  1.1640206545418343e+00 -3.7405070355584158e-02 0.0000000000000000e+00  0.0000000000000000e+00 0.0000000000000000e+00 0.0000000000000000e+00  0.0000000000000000e+00 0.0000000000000000e+00 0.0000000000000000e+00  0.0000000000000000e+00 0.0000000000000000e+00 0.0000000000000000e+00  0.0000000000000000e+00 0.0000000000000000e+00 0.0000000000000000e+00  0.0000000000000000e+00 0.0000000000000000e+00 0.0000000000000000e+00  0.0000000000000000e+00 0.0000000000000000e+00 0.0000000000000000e+00  0.0000000000000000e+00 0.0000000000000000e+00 0.0000000000000000e+00  0.0000000000000000e+00 0.0000000000000000e+00 0.0000000000000000e+00  0.0000000000000000e+00 0.0000000000000000e+00 0.0000000000000000e+00  1.3516791915859652e+00 -1.4630257192721435e-01 0.0000000000000000e+00  1.2391181660100368e+00 -4.1178560577177330e-02 0.0000000000000000e+00  1.7860338119845645e-01 -7.5924937594842330e-03 0.0000000000000000e+00  2.1236738368754263e-01 -1.3513378880829987e-02 0.0000000000000000e+00  1.0831227717669132e+00 1.7613997399313228e-01 0.0000000000000000e+00  8.6027636207016644e-01 1.9912858657997096e-01 0.0000000000000000e+00  1.4837223279778069e+00 2.9623635540458073e-02 0.0000000000000000e+00  8.3471719734592897e-01 -2.3919462719281753e-01 0.0000000000000000e+00  2.2924026271443285e-02 -2.4450673665997254e-03 0.0000000000000000e+00  5.0772309112372971e-01 1.2373958806730551e-01 0.0000000000000000e+00  6.0465722630653285e-01 -2.9490680644507949e-01 0.0000000000000000e+00  1.0177147036915397e-01 2.7601497192188088e-02 0.0000000000000000e+00  1.2598398635672886e-01 -3.7072323774390514e-02 0.0000000000000000e+00  1.2393637827228392e+00 3.4686293376431278e-03 0.0000000000000000e+00  1.2667172116431733e+00 1.4480058419170957e-01 0.0000000000000000e+00  2.3326983538785967e-01 1.5092062056623162e-01 0.0000000000000000e+00  1.1874005235816087e+00 -2.1168720083524734e-01 0.0000000000000000e+00  1.1885184559748052e+00 -2.5599538459545873e-01 0.0000000000000000e+00  1.2791275035705376e+00 -2.7987850778637946e-01 0.0000000000000000e+00  1.3037675410510063e+00 -1.4811464582726705e-01 0.0000000000000000e+00  2.2241747078637428e-01 2.7037508785372644e-01 0.0000000000000000e+00  8.8911878869119754e-01 1.0640623714957496e-01 0.0000000000000000e+00  5.9745139789120313e-02 -3.3250441008133506e-02 0.0000000000000000e+00  1.2194415998491592e+00 -2.9563970248764036e-02 0.0000000000000000e+00  1.0134350512708497e+00 -1.4139873273302478e-01 0.0000000000000000e+00  1.4127949767533385e+00 1.1641124384492059e-02 0.0000000000000000e+00  1.2555615733086831e+00 -5.3312097625429281e-02 0.0000000000000000e+00  1.2794019941607169e+00 8.8972804204760947e-02 0.0000000000000000e+00  2.8120405593508907e-01 3.8713247151814144e-02 0.0000000000000000e+00  3.6714943444145476e-01 -1.2135928839592480e-01 0.0000000000000000e+00  7.3846325486793041e-01 2.1577917002244232e-01 0.0000000000000000e+00  1.1858523233459568e+00 1.5803011814744769e-01 0.0000000000000000e+00  8.7825774338575358e-02 -1.5695262310089279e-02 0.0000000000000000e+00  9.6939489848328375e-01 2.1280025405243300e-01 0.0000000000000000e+00  1.0302201647393798e+00 1.6762996075721015e-01 0.0000000000000000e+00  2.7389827022419561e-01 1.9744121960269614e-02 0.0000000000000000e+00  3.1300636253462449e-01 -9.9758663824400531e-02 0.0000000000000000e+00  6.7212186035436480e-02 1.6869148289047495e-02 0.0000000000000000e+00  8.4208226019522645e-02 -2.0311507702275064e-02 0.0000000000000000e+00  7.2609303765256039e-01 -3.0987938258749170e-01 0.0000000000000000e+00  1.5398283493295746e+00 2.1687145415843948e-02 0.0000000000000000e+00  8.9379906092617856e-01 1.5034826207767998e-01 0.0000000000000000e+00  1.4333824459935256e+00 4.6188132937400511e-02 0.0000000000000000e+00  1.4104859276194901e+00 2.0227024874592162e-02 0.0000000000000000e+00  8.4345032312171353e-01 -2.2289436609035745e-01 0.0000000000000000e+00  1.5288866370379524e-02 -2.7185345108998375e-03 0.0000000000000000e+00  5.2049399151957620e-01 1.3934350289232536e-01 0.0000000000000000e+00  6.3722417946700405e-01 -3.2688136499037063e-01 0.0000000000000000e+00  1.6576924530798226e-01 1.2211978877681434e-01 0.0000000000000000e+00  1.2889894451760351e+00 -1.6562061948189369e-01 0.0000000000000000e+00  2.3845300458359428e-01 2.1557407399062489e-01 0.0000000000000000e+00  1.2173243096743283e+00 -1.7992049543764924e-01 0.0000000000000000e+00  1.1479954244715656e+00 -1.7909359114900342e-01 0.0000000000000000e+00  1.2283611310466849e+00 -2.8488781019835197e-01 0.0000000000000000e+00  1.1914225017434477e+00 -2.3184324568567991e-01 0.0000000000000000e+00  1.3067452291195900e+00 -2.6643698674877520e-01 0.0000000000000000e+00  1.3310827156663247e+00 -1.4043286243807723e-01 0.0000000000000000e+00  1.1648075767170480e+00 -2.4953139612793579e-01 0.0000000000000000e+00  1.3160030183217781e+00 -1.6674039281093977e-01 0.0000000000000000e+00  1.1777936583592323e+00 -2.8098145107731559e-01 0.0000000000000000e+00  1.2910224673521611e+00 -3.0402123818562254e-01 0.0000000000000000e+00  1.2692240628177636e+00 -2.5521614286836436e-01 0.0000000000000000e+00  1.9594442923349781e-01 2.5617197877017334e-01 0.0000000000000000e+00  2.3555319812195596e-01 2.9399341186038336e-01 0.0000000000000000e+00  2.0436486890783095e-01 2.8887066827186536e-01 0.0000000000000000e+00  8.8055529285797585e-01 1.0969401705706110e-01 0.0000000000000000e+00  8.9240861057269194e-01 1.0526626022167693e-01 0.0000000000000000e+00  8.8975413897566824e-01 1.0647720863384846e-01 0.0000000000000000e+00  1.1007648506771839e+00 -1.0307640437851832e-01 0.0000000000000000e+00  1.3574412099320496e+00 1.3146207730130933e-02 0.0000000000000000e+00  5.1151004433227808e-02 2.1067515856580177e-02 0.0000000000000000e+00  1.4633557071552761e+00 3.1630490597166473e-02 0.0000000000000000e+00  1.5005319102166284e-01 -2.0686872999567084e-02 0.0000000000000000e+00  1.0917383087925527e+00 -8.3255900850004158e-02 0.0000000000000000e+00  1.5101776107371001e+00 2.6161864521377365e-02 0.0000000000000000e+00  1.3437292452364831e+00 -9.9764649642996184e-03 0.0000000000000000e+00  4.2177048315118371e-01 1.0406280370090933e-01 0.0000000000000000e+00  2.0477831328053975e-02 -1.8483414062816741e-02 0.0000000000000000e+00  3.7034117875905120e-01 4.9119692945911848e-02 0.0000000000000000e+00  6.1525955697395267e-02 -3.0736435666246432e-02 0.0000000000000000e+00  1.2660805847336758e+00 1.0917340112334420e-01 0.0000000000000000e+00  9.0288947111003215e-01 -2.0904509692712556e-01 0.0000000000000000e+00  1.2198882405288118e-01 4.0571719659602806e-03 0.0000000000000000e+00  7.4631315830076939e-01 1.7725192460896289e-01 0.0000000000000000e+00  1.2838355901922134e+00 1.1999270075176042e-02 0.0000000000000000e+00  8.1946409705339174e-01 2.3852985937063145e-01 0.0000000000000000e+00  4.9232945797535804e-01 -2.0357913837572800e-01 0.0000000000000000e+00  1.1870760218940868e+00 1.2223513918179965e-01 0.0000000000000000e+00  1.0674477416680797e+00 2.0871427162661085e-01 0.0000000000000000e+00  6.2985701868565702e-01 1.8898691843262794e-01 0.0000000000000000e+00  2.6314795284764780e-02 -2.0590745557754333e-02 0.0000000000000000e+00  1.1748097870156513e+00 -3.8227518529626241e-02 0.0000000000000000e+00  1.2368387891681143e+00 -1.0714217104693191e-01 0.0000000000000000e+00  1.1323972222103612e-01 -1.4841565416032782e-03 0.0000000000000000e+00  5.1707875582999596e-01 -2.4484045098945006e-01 0.0000000000000000e+00  7.1045767219469780e-01 -2.9335147134595485e-01 0.0000000000000000e+00  1.3215192511236205e+00 -4.3635510602795351e-02 0.0000000000000000e+00  2.0145917282664308e-01 4.5277457293513547e-02 0.0000000000000000e+00  1.3645358405541547e-01 -1.0166160281813426e-01 0.0000000000000000e+00  1.4357798717622821e+00 4.7902566549800914e-02 0.0000000000000000e+00  9.4554589823452828e-01 1.7621710724669593e-01 0.0000000000000000e+00  4.0709059025186504e-02 -3.5702129281765096e-02 0.0000000000000000e+00  1.6894471862895266e-01 -2.5101402603414542e-02 0.0000000000000000e+00  1.0201667182117724e+00 1.9044974296347542e-01 0.0000000000000000e+00  9.8262201782456149e-01 1.4667757826010222e-01 0.0000000000000000e+00  1.0759382628960161e+00 1.5028755180770789e-01 0.0000000000000000e+00  7.3070131782584291e-01 -3.2291720911650779e-01 0.0000000000000000e+00  1.3369924774799224e+00 6.1908052692203945e-02 0.0000000000000000e+00  6.5090949660563024e-01 -3.1964559575570339e-01 0.0000000000000000e+00  3.0849242346868755e-01 7.7906304640703347e-02 0.0000000000000000e+00  3.1680234312608613e-01 -1.6737632571655811e-01 0.0000000000000000e+00  8.9885354005243723e-01 1.2431052115710534e-01 0.0000000000000000e+00  8.8571782807476263e-01 -2.1619587404780130e-01 0.0000000000000000e+00  5.8486977599275969e-01 1.6828428459968794e-01 0.0000000000000000e+00  1.3380921166690505e+00 -1.0783372150060361e-01 0.0000000000000000e+00  1.8805075471506066e-0