<?xml version="1.0"?>
<VTKFile type="UnstructuredGrid"  version="0.1"  >
<UnstructuredGrid>
<Piece  NumberOfPoints="2868" NumberOfCells="5400">
<Points>
<DataArray  type="Float64"  NumberOfComponents="3"  format="ascii">0.534923 0.326073 0  0.510642 0.314196 0  0.466125 0.293082 0  0.436448 0.281205 0  0.409468 0.275927 0  0.368998 0.270648 0  0.35281 0.275927 0  0.381139 0.302319 0  0.405421 0.326073 0  0.410817 0.33531 0  0.408119 0.349826 0  0.400025 0.357744 0  0.375743 0.368301 0  0.329878 0.392055 0  0.297502 0.432963 0  0.282663 0.476511 0  0.285361 0.524018 0  0.298851 0.572845 0  0.317737 0.6045160000000001 0  0.337972 0.6361869999999999 0  0.360904 0.674457 0  0.368998 0.69953 0  0.359555 0.7219640000000001 0  0.360904 0.757594 0  0.370347 0.766831 0  0.381139 0.762872 0  0.390582 0.741758 0  0.404072 0.720644 0  0.424307 0.707448 0  0.447239 0.702169 0  0.480964 0.704808 0  0.479615 0.6889729999999999 0  0.468823 0.675776 0  0.447239 0.6691780000000001 0  0.428354 0.6691780000000001 0  0.410817 0.6639 0  0.404072 0.653343 0  0.395978 0.628269 0  0.387884 0.59132 0  0.389233 0.576804 0  0.397327 0.557009 0  0.410817 0.547772 0  0.424307 0.546452 0  0.437797 0.55305 0  0.44589 0.5662469999999999 0  0.441843 0.582082 0  0.439145 0.5979179999999999 0  0.449937 0.609795 0  0.468823 0.603196 0  0.479615 0.59 0  0.489058 0.570205 0  0.494454 0.546452 0  0.505246 0.522699 0  0.522783 0.509502 0  0.55246 0.494986 0  0.586185 0.484429 0  0.615863 0.48047 0  0.64554 0.473872 0  0.6671240000000001 0.461995 0  0.683312 0.451438 0  0.696802 0.435603 0  0.703547 0.417128 0  0.7116400000000001 0.393374 0  0.7183850000000001 0.37226 0  0.7251300000000001 0.364342 0  0.739969 0.353785 0  0.7453650000000001 0.344548 0  0.7453650000000001 0.327393 0  0.737271 0.318155 0  0.7183850000000001 0.316835 0  0.7008490000000001 0.319475 0  0.677916 0.318155 0  0.650936 0.316835 0  0.610467 0.318155 0  0.57944 0.324753 0  0.559205 0.328712 0  0.5389699999999999 0.326073 0  1 1 0  1 0 0  0 0 0  0 1 0  0.532238 0.32476 0  0.528748 0.323052 0  0.52421 0.320833 0  0.518311 0.317947 0  0.503447 0.310783 0  0.494093 0.306347 0  0.481933 0.30058 0  0.452151 0.28749 0  0.392327 0.273691 0  0.379141 0.271971 0  0.360474 0.283066 0  0.369797 0.291752 0  0.391424 0.31238 0  0.399335 0.32012 0  0.40958 0.341964 0  0.393939 0.36039 0  0.386028 0.36383 0  0.364248 0.374254 0  0.349304 0.381994 0  0.315801 0.409841 0  0.292986 0.551616 0  0.350934 0.657818 0  0.360127 0.737055 0  0.360566 0.748664 0  0.385245 0.753692 0  0.396447 0.732578 0  0.466301 0.703661 0  0.459439 0.672908 0  0.418442 0.666195 0  0.400553 0.642441 0  0.39255 0.612619 0  0.389913 0.60058 0  0.392752 0.568197 0  0.444131 0.573132 0  0.458149 0.606926 0  0.5005540000000001 0.533026 0  0.571522 0.489019 0  0.632637 0.476741 0  0.689177 0.444553 0  0.708121 0.403702 0  0.715453 0.38144 0  0.732406 0.359166 0  0.7453650000000001 0.337089 0  0.72906 0.317581 0  0.629879 0.317522 0  0.59293 0.321884 0  0.568003 0.326991 0  0.55202 0.327775 0  0.546493 0.327054 0  0.542241 0.326499 0  1 0.9 0  1 0.8 0  1 0.7 0  1 0.6 0  1 0.5 0  1 0.4 0  1 0.3 0  1 0.2 0  1 0.1 0  0.9 0 0  0.8 0 0  0.7 0 0  0.6 0 0  0.5 0 0  0.4 0 0  0.3 0 0  0.2 0 0  0.1 0 0  0.1 1 0  0.2 1 0  0.3 1 0  0.4 1 0  0.5 1 0  0.6 1 0  0.7 1 0  0.8 1 0  0.9 1 0  0 0.1 0  0 0.2 0  0 0.3 0  0 0.4 0  0 0.5 0  0 0.6 0  0 0.7 0  0 0.8 0  0 0.9 0  0.535686 0.5031910000000001 0  0.753987 0.733359 0  0.167145 0.741436 0  0.173378 0.257204 0  0.733497 0.159862 0  0.554096 0.15788 0  0.849187 0.479053 0  0.488793 0.838452 0  0.138507 0.5592 0  0.30686 0.154944 0  0.348904 0.890523 0  0.058006 0.065099 0  0.06984899999999999 0.937917 0  0.93633 0.939704 0  0.934625 0.053613 0  0.343397 0.333452 0  0.473272 0.639943 0  0.433266 0.638072 0  0.415174 0.58269 0  0.533435 0.545042 0  0.390848 0.340652 0  0.53655 0.320242 0  0.127966 0.393775 0  0.83861 0.850455 0  0.635242 0.8551299999999999 0  0.852158 0.633441 0  0.653427 0.626848 0  0.861226 0.24292 0  0.166128 0.12976 0  0.216875 0.8698709999999999 0  0.458305 0.11179 0  0.84446 0.101633 0  0.202024 0.642528 0  0.644825 0.115855 0  0.671342 0.218358 0  0.251354 0.286186 0  0.262388 0.75153 0  0.063044 0.751571 0  0.068189 0.242962 0  0.435781 0.9053949999999999 0  0.934144 0.451133 0  0.568393 0.237622 0  0.814984 0.395506 0  0.752951 0.517227 0  0.456254 0.780699 0  0.073352 0.531116 0  0.337731 0.206071 0  0.363213 0.960371 0  0.330742 0.363592 0  0.516613 0.55705 0  0.369057 0.332992 0  0.500926 0.617309 0  0.498004 0.665534 0  0.412142 0.61178 0  0.454233 0.6366039999999999 0  0.422782 0.567496 0  0.541193 0.5214800000000001 0  0.439761 0.65557 0  0.5163 0.533672 0  0.414775 0.64562 0  0.40073 0.576135 0  0.430362 0.5880339999999999 0  0.385432 0.351492 0  0.400298 0.335397 0  0.398325 0.348194 0  0.528702 0.314885 0  0.540814 0.322334 0  0.534477 0.322953 0  0.619095 0.743583 0  0.885162 0.737972 0  0.08076 0.668849 0  0.90734 0.36634 0  0.09468699999999999 0.868937 0  0.759838 0.912152 0  0.901518 0.540898 0  0.747285 0.607479 0  0.229182 0.071641 0  0.06915399999999999 0.450091 0  0.244775 0.203309 0  0.076534 0.331755 0  0.897847 0.167826 0  0.578909 0.911415 0  0.07713299999999999 0.146341 0  0.477215 0.203448 0  0.922631 0.869341 0  0.517415 0.074785 0  0.297026 0.827793 0  0.7832710000000001 0.246505 0  0.74519 0.061079 0  0.36033 0.069068 0  0.210313 0.475228 0  0.859426 0.928758 0  0.5745479999999999 0.609182 0  0.243069 0.383398 0  0.283099 0.934598 0  0.417416 0.843141 0  0.643942 0.553164 0  0.112687 0.079336 0  0.281357 0.658386 0  0.765043 0.436177 0  0.611361 0.198486 0  0.234496 0.58911 0  0.206479 0.702638 0  0.679608 0.155818 0  0.62682 0.259978 0  0.690538 0.264164 0  0.448938 0.956308 0  0.808154 0.328403 0  0.379583 0.91913 0  0.308083 0.297769 0  0.312358 0.730249 0  0.563101 0.278576 0  0.435597 0.746198 0  0.385475 0.225229 0  0.572248 0.518034 0  0.357864 0.35422 0  0.497647 0.641694 0  0.458101 0.655768 0  0.360474 0.310727 0  0.467038 0.620139 0  0.47798 0.659909 0  0.41102 0.628072 0  0.48324 0.609015 0  0.427544 0.617941 0  0.388633 0.328253 0  0.405336 0.599404 0  0.408351 0.565178 0  0.42395 0.600985 0  0.431562 0.576523 0  0.424905 0.6551979999999999 0  0.398064 0.58782 0  0.427739 0.557934 0  0.5192909999999999 0.303443 0  0.53142 0.320293 0  0.5449000000000001 0.323642 0  0.537166 0.323513 0  0.153974 0.920841 0  0.9181859999999999 0.67343 0  0.759946 0.820588 0  0.5375259999999999 0.783091 0  0.816532 0.545843 0  0.813991 0.178083 0  0.836774 0.702023 0  0.149815 0.318856 0  0.662287 0.923338 0  0.680146 0.791192 0  0.708961 0.663172 0  0.9372779999999999 0.287318 0  0.574622 0.6881660000000001 0  0.5894740000000001 0.076262 0  0.502822 0.926683 0  0.222269 0.811068 0  0.380457 0.164786 0  0.15321 0.684154 0  0.458063 0.051413 0  0.161702 0.056026 0  0.199351 0.198818 0  0.298946 0.09553200000000001 0  0.902465 0.795949 0  0.121139 0.791477 0  0.906269 0.112287 0  0.056109 0.822332 0  0.512172 0.13237 0  0.940964 0.741805 0  0.888887 0.408777 0  0.354543 0.825964 0  0.808736 0.068638 0  0.068507 0.394071 0  0.719105 0.563843 0  0.247287 0.149664 0  0.293062 0.237128 0  0.240524 0.434997 0  0.141255 0.623289 0  0.945202 0.160621 0  0.502914 0.247629 0  0.144669 0.480811 0  0.665025 0.060817 0  0.728047 0.224344 0  0.861995 0.313312 0  0.200068 0.534235 0  0.253262 0.965623 0  0.893804 0.49307 0  0.604391 0.572456 0  0.947088 0.345347 0  0.439372 0.227307 0  0.629847 0.159823 0  0.273405 0.880181 0  0.302744 0.776823 0  0.781502 0.295365 0  0.275342 0.349602 0  0.7283849999999999 0.472798 0  0.229136 0.246478 0  0.807794 0.480346 0  0.709476 0.112786 0  0.275506 0.694991 0  0.771674 0.394419 0  0.449715 0.861802 0  0.419159 0.799696 0  0.674851 0.503139 0  0.280443 0.61016 0  0.572443 0.192538 0  0.393113 0.87525 0  0.405555 0.948428 0  0.330942 0.934103 0  0.540509 0.597101 0  0.312763 0.6689310000000001 0  0.254368 0.540179 0  0.595265 0.25915 0  0.606679 0.234099 0  0.657131 0.279138 0  0.722458 0.279478 0  0.333 0.308056 0  0.351529 0.246142 0  0.455714 0.7257940000000001 0  0.585239 0.295143 0  0.340062 0.72492 0  0.545593 0.293773 0  0.555449 0.545426 0  0.414311 0.737314 0  0.590854 0.502323 0  0.350507 0.368444 0  0.484423 0.625665 0  0.483899 0.674542 0  0.378137 0.317274 0  0.446416 0.646404 0  0.373532 0.347654 0  0.446876 0.619769 0  0.466106 0.666068 0  0.437545 0.609254 0  0.434988 0.565726 0  0.41462 0.656829 0  0.418803 0.556961 0  0.398425 0.327446 0  0.517803 0.310421 0  0.549516 0.322918 0  0.57701 0.842889 0  0.8291269999999999 0.773906 0  0.643235 0.684732 0  0.134281 0.207734 0  0.865997 0.055966 0  0.680959 0.723345 0  0.165229 0.8415550000000001 0  0.54558 0.959672 0  0.783726 0.656439 0  0.913315 0.595533 0  0.699439 0.860667 0  0.785839 0.125076 0  0.551673 0.037713 0  0.9200970000000001 0.223214 0  0.206406 0.299726 0  0.087064 0.596401 0  0.935644 0.394252 0  0.964557 0.252582 0  0.230124 0.928346 0  0.120579 0.271764 0  0.8572149999999999 0.524082 0  0.7670979999999999 0.5551469999999999 0  0.936094 0.507131 0  0.804064 0.59585 0  0.700565 0.608273 0  0.429773 0.174231 0  0.117746 0.727333 0  0.5389620000000001 0.730231 0  0.862761 0.359173 0  0.821444 0.284046 0  0.193552 0.35818 0  0.234923 0.505555 0  0.193209 0.421217 0  0.220144 0.755896 0  0.594015 0.131642 0  0.283813 0.195855 0  0.517519 0.213961 0  0.553509 0.639116 0  0.280391 0.378018 0  0.852183 0.436817 0  0.746983 0.197173 0  0.821806 0.221318 0  0.449853 0.828453 0  0.883758 0.453926 0  0.183484 0.589542 0  0.348384 0.129314 0  0.255254 0.838525 0  0.504849 0.798516 0  0.320344 0.863432 0  0.611669 0.525425 0  0.265864 0.804962 0  0.72056 0.521442 0  0.613372 0.6101220000000001 0  0.481262 0.881068 0  0.655778 0.191988 0  0.701921 0.196918 0  0.5658260000000001 0.5731810000000001 0  0.46914 0.240927 0  0.343219 0.173284 0  0.888786 0.278502 0  0.244113 0.6750930000000001 0  0.739546 0.417914 0  0.784023 0.355942 0  0.326805 0.265549 0  0.248616 0.6
[...]
<PointData  Vectors="f_21"> 
<DataArray  type="Float64"  Name="f_21"  NumberOfComponents="3" format="ascii">2.5886058286767727e-01 -5.6650330017490876e-02 0.0000000000000000e+00  2.4998660882467927e-01 -5.1272516791480767e-02 0.0000000000000000e+00  2.1187077852241651e-01 -3.5614764680856933e-02 0.0000000000000000e+00  1.7483017289243158e-01 -2.5135563674342474e-02 0.0000000000000000e+00  1.4038678741896213e-01 -1.7397658996493554e-02 0.0000000000000000e+00  8.3368406380236237e-02 -4.0563880953741575e-03 0.0000000000000000e+00  5.1634314620393758e-02 -2.1858119315782392e-03 0.0000000000000000e+00  1.8386812608293748e-02 9.8669502616224626e-03 0.0000000000000000e+00  9.2215865627690539e-03 1.2766150396449504e-02 0.0000000000000000e+00  6.8016809887445342e-03 1.3884315947525002e-02 0.0000000000000000e+00  3.0766350298247294e-03 1.3046104914368705e-02 0.0000000000000000e+00  1.1478866860928643e-03 1.0955279879728195e-02 0.0000000000000000e+00  -8.0930050507060892e-04 4.9141106386598318e-03 0.0000000000000000e+00  -8.5258924777438115e-04 -2.7525499991035247e-03 0.0000000000000000e+00  5.2445010533177890e-05 -2.0101026492704518e-03 0.0000000000000000e+00  3.4368743492669781e-05 -6.2537529009803355e-04 0.0000000000000000e+00  -1.4682590578434493e-05 1.6268551644752126e-04 0.0000000000000000e+00  1.3565424500658772e-06 1.0567759857022260e-03 0.0000000000000000e+00  -2.5367544327917072e-04 1.8677798456225841e-03 0.0000000000000000e+00  -6.8056343372528759e-04 1.6331052821323864e-03 0.0000000000000000e+00  1.2021029594360844e-03 -3.1110913802770649e-03 0.0000000000000000e+00  6.7716964197649786e-03 -7.2468545426804610e-03 0.0000000000000000e+00  1.5141100073419863e-02 -7.3174811062212634e-03 0.0000000000000000e+00  5.3255518429719303e-02 -1.0784591161963859e-02 0.0000000000000000e+00  8.8335276679442923e-02 -1.5848687458594961e-02 0.0000000000000000e+00  1.1941265895638536e-01 -1.3437738291841361e-02 0.0000000000000000e+00  1.6388419056365772e-01 -8.9885008197091928e-03 0.0000000000000000e+00  1.8434525151997344e-01 1.2285896903829409e-03 0.0000000000000000e+00  1.9186650059135746e-01 1.0206437900067976e-02 0.0000000000000000e+00  1.9462440716620252e-01 1.2348887133796239e-02 0.0000000000000000e+00  2.1688655878433272e-01 -1.5258904347185857e-02 0.0000000000000000e+00  2.5002430373852458e-01 -3.3932601849076580e-02 0.0000000000000000e+00  2.7128242348183051e-01 -4.6100381249046245e-02 0.0000000000000000e+00  2.9094602525046920e-01 -3.9352184040949367e-02 0.0000000000000000e+00  3.0449596266367124e-01 -1.2510832459321780e-02 0.0000000000000000e+00  3.0145641697076503e-01 1.8626587212388693e-02 0.0000000000000000e+00  2.8735285715712167e-01 3.1744799052716703e-02 0.0000000000000000e+00  2.4875973461722489e-01 6.3424980129529795e-02 0.0000000000000000e+00  1.4620392097866844e-01 1.1369318816728147e-01 0.0000000000000000e+00  9.6143509254734166e-02 1.1389672649334279e-01 0.0000000000000000e+00  2.5816422866090937e-02 8.9629065674227099e-02 0.0000000000000000e+00  -7.1573907385697319e-03 4.4072624574007860e-02 0.0000000000000000e+00  -1.2232869546819410e-02 -2.0932272503124123e-03 0.0000000000000000e+00  1.0274139057918526e-02 -4.8982408229023777e-02 0.0000000000000000e+00  5.7428348547293194e-02 -7.8185020496107746e-02 0.0000000000000000e+00  1.1730030337978063e-01 -6.2112373943947197e-02 0.0000000000000000e+00  1.8330058029946067e-01 -4.1824490225296773e-02 0.0000000000000000e+00  2.4861058823712123e-01 -4.9461755754945234e-02 0.0000000000000000e+00  2.9542999791551133e-01 -5.2707195630661473e-02 0.0000000000000000e+00  3.3116439443401230e-01 -5.0253829336389610e-02 0.0000000000000000e+00  3.6794159943963867e-01 -4.6474209463187269e-02 0.0000000000000000e+00  4.0149735557584082e-01 -4.2308401062230820e-02 0.0000000000000000e+00  4.2736686432564841e-01 -3.0645583975449441e-02 0.0000000000000000e+00  4.3867277946175393e-01 -1.4395312492866779e-02 0.0000000000000000e+00  4.4770371728478253e-01 6.2286105278123510e-03 0.0000000000000000e+00  4.5308331159628312e-01 2.0211613551521079e-02 0.0000000000000000e+00  4.5904156340301944e-01 2.5498134361549449e-02 0.0000000000000000e+00  4.7358540393667803e-01 2.6344028933947015e-02 0.0000000000000000e+00  4.9192160965423348e-01 2.8796709151982566e-02 0.0000000000000000e+00  5.0619669146342416e-01 3.2115965855719547e-02 0.0000000000000000e+00  5.2068180722340496e-01 3.7360156777774385e-02 0.0000000000000000e+00  5.3042955907631084e-01 4.2340248352168784e-02 0.0000000000000000e+00  5.3554441107143014e-01 4.9762267988732345e-02 0.0000000000000000e+00  5.3481633374350857e-01 5.4667071399757128e-02 0.0000000000000000e+00  5.3399476229629605e-01 5.6280110778702069e-02 0.0000000000000000e+00  5.2905948785490031e-01 6.0738044060285198e-02 0.0000000000000000e+00  5.1853182000404752e-01 6.2751907006177776e-02 0.0000000000000000e+00  4.8197287884311490e-01 6.2288701539338458e-02 0.0000000000000000e+00  4.4369182002152380e-01 5.7672333746059602e-02 0.0000000000000000e+00  3.9762202297014992e-01 3.7769665805138068e-02 0.0000000000000000e+00  3.7044173543525949e-01 2.1370709210237513e-02 0.0000000000000000e+00  3.4676231672000407e-01 6.0650957368801398e-03 0.0000000000000000e+00  3.1880760752124593e-01 -1.0262380244285024e-02 0.0000000000000000e+00  2.8398295664668888e-01 -3.4368243237150660e-02 0.0000000000000000e+00  2.6633137533919171e-01 -5.0039076155302613e-02 0.0000000000000000e+00  2.6157609677739652e-01 -5.5767063885940799e-02 0.0000000000000000e+00  2.5920684855305753e-01 -5.6913037102651456e-02 0.0000000000000000e+00  6.6624310243058094e-01 -1.8669099343798748e-01 0.0000000000000000e+00  6.7029548671055905e-01 1.6756032848520219e-01 0.0000000000000000e+00  0.0000000000000000e+00 0.0000000000000000e+00 0.0000000000000000e+00  0.0000000000000000e+00 0.0000000000000000e+00 0.0000000000000000e+00  2.5844070276536296e-01 -5.6271228109568500e-02 0.0000000000000000e+00  2.5759554474559176e-01 -5.5671316153120813e-02 0.0000000000000000e+00  2.5615851536769874e-01 -5.4789894882812495e-02 0.0000000000000000e+00  2.5383151389847464e-01 -5.3381193996390498e-02 0.0000000000000000e+00  2.4565197483556911e-01 -4.9051300258924665e-02 0.0000000000000000e+00  2.3896867453099185e-01 -4.5934271331549634e-02 0.0000000000000000e+00  2.2861467501197713e-01 -4.1505520054624899e-02 0.0000000000000000e+00  1.9584685610962568e-01 -3.0553099769796473e-02 0.0000000000000000e+00  1.1922330647600571e-01 -1.2501382340774272e-02 0.0000000000000000e+00  1.0156032298599037e-01 -8.0303069413901560e-03 0.0000000000000000e+00  3.6025787832738736e-02 5.6412748399943093e-03 0.0000000000000000e+00  2.5842471455679760e-02 8.3872858455876394e-03 0.0000000000000000e+00  1.3575394858952266e-02 1.0730071397747808e-02 0.0000000000000000e+00  1.0933524804475837e-02 1.1722213353275810e-02 0.0000000000000000e+00  5.0897543929655266e-03 1.3498462954211123e-02 0.0000000000000000e+00  5.4507999524292861e-04 9.4167666833961817e-03 0.0000000000000000e+00  -1.5030971597414868e-04 7.4543105143948371e-03 0.0000000000000000e+00  -1.3797193882023962e-03 2.1913017680940030e-03 0.0000000000000000e+00  -1.3990905941145208e-03 -5.9739316795641851e-04 0.0000000000000000e+00  -2.8997935905875993e-04 -2.9282699777304693e-03 0.0000000000000000e+00  4.0120453020464226e-06 5.9697364716424157e-04 0.0000000000000000e+00  -3.9361655698680207e-04 -3.0457606493424649e-04 0.0000000000000000e+00  2.5420433373902464e-02 -1.0225622419878162e-02 0.0000000000000000e+00  3.7661398933474415e-02 -1.1993848869963524e-02 0.0000000000000000e+00  1.4532877158998192e-01 -1.3277871074944540e-02 0.0000000000000000e+00  1.7436668841171132e-01 -4.1352743337384444e-03 0.0000000000000000e+00  2.0072733319986411e-01 4.9509865400569905e-03 0.0000000000000000e+00  2.8067980026851841e-01 -4.6076398191315295e-02 0.0000000000000000e+00  3.0371003471940922e-01 4.9044014906819491e-03 0.0000000000000000e+00  2.7289610211906062e-01 4.2888554084646355e-02 0.0000000000000000e+00  2.1333755077565913e-01 8.4887925138271939e-02 0.0000000000000000e+00  1.7723761884027722e-01 1.0221322396810054e-01 0.0000000000000000e+00  6.5622056557893244e-02 1.0391612340669372e-01 0.0000000000000000e+00  8.2980598202042802e-02 -7.1673827126826101e-02 0.0000000000000000e+00  2.7072093272633407e-01 -5.2345979118505574e-02 0.0000000000000000e+00  4.1691811892293007e-01 -3.5746875599463088e-02 0.0000000000000000e+00  4.5087969937766381e-01 1.5420636425000158e-02 0.0000000000000000e+00  4.6616188260836039e-01 2.6363299245329142e-02 0.0000000000000000e+00  5.1327486017741952e-01 3.4016779471726509e-02 0.0000000000000000e+00  5.3424010373525999e-01 4.6594766702570463e-02 0.0000000000000000e+00  5.3552641050817018e-01 5.2977605271424380e-02 0.0000000000000000e+00  5.3224698062980280e-01 5.8285189864475860e-02 0.0000000000000000e+00  5.0597943287726999e-01 6.5735377710201451e-02 0.0000000000000000e+00  4.2033370794452984e-01 4.7792016044389339e-02 0.0000000000000000e+00  2.9901174948913928e-01 -2.3502767437986287e-02 0.0000000000000000e+00  2.7212482544267441e-01 -4.4011513942292926e-02 0.0000000000000000e+00  2.6314120418382386e-01 -5.3845918589005240e-02 0.0000000000000000e+00  2.6094719905401081e-01 -5.6664631048179988e-02 0.0000000000000000e+00  2.6024227736192401e-01 -5.6949344875560567e-02 0.0000000000000000e+00  2.5966606797434516e-01 -5.6994667069138687e-02 0.0000000000000000e+00  6.4812001844528822e-01 -1.5354849145975341e-01 0.0000000000000000e+00  6.3280670894270963e-01 -1.1327841266399645e-01 0.0000000000000000e+00  6.2855959308237697e-01 -5.9071876553697153e-02 0.0000000000000000e+00  6.4621318507516468e-01 -1.7423571471353655e-03 0.0000000000000000e+00  6.8808794973035725e-01 3.4357568117343258e-02 0.0000000000000000e+00  7.0457708891226278e-01 4.1874186418617190e-02 0.0000000000000000e+00  6.8405499436124251e-01 5.4496027817190783e-02 0.0000000000000000e+00  6.6285332430851618e-01 8.8317345972005121e-02 0.0000000000000000e+00  6.5914657807654786e-01 1.3059842664768742e-01 0.0000000000000000e+00  5.7758670915081289e-01 1.5367684571051812e-01 0.0000000000000000e+00  4.8599902927769545e-01 1.3516063535794690e-01 0.0000000000000000e+00  3.9637119328291459e-01 1.1387482224991997e-01 0.0000000000000000e+00  3.0539245009461408e-01 8.7026214482562828e-02 0.0000000000000000e+00  2.1140736966944132e-01 5.9430751540052819e-02 0.0000000000000000e+00  1.2131152934909840e-01 3.5926899777737165e-02 0.0000000000000000e+00  5.5082026328413025e-02 1.7279574780378667e-02 0.0000000000000000e+00  1.5768047837739257e-02 5.1503252710586077e-03 0.0000000000000000e+00  1.9556692997070081e-03 5.8221901691968270e-04 0.0000000000000000e+00  1.9065711528883985e-03 -6.1455431414004418e-04 0.0000000000000000e+00  1.5067337375403920e-02 -4.7091385955657086e-03 0.0000000000000000e+00  5.6997912168049142e-02 -1.8329502109349693e-02 0.0000000000000000e+00  1.2630561374939803e-01 -4.0018570847231767e-02 0.0000000000000000e+00  2.1800569429388858e-01 -6.9677544385445031e-02 0.0000000000000000e+00  3.0810049314199500e-01 -1.0201387881959913e-01 0.0000000000000000e+00  3.9467398387080516e-01 -1.2855490566793487e-01 0.0000000000000000e+00  4.8261866919419344e-01 -1.4930259603666635e-01 0.0000000000000000e+00  5.7331812665544324e-01 -1.6785992264159730e-01 0.0000000000000000e+00  0.0000000000000000e+00 0.0000000000000000e+00 0.0000000000000000e+00  0.0000000000000000e+00 0.0000000000000000e+00 0.0000000000000000e+00  0.0000000000000000e+00 0.0000000000000000e+00 0.0000000000000000e+00  0.0000000000000000e+00 0.0000000000000000e+00 0.0000000000000000e+00  0.0000000000000000e+00 0.0000000000000000e+00 0.0000000000000000e+00  0.0000000000000000e+00 0.0000000000000000e+00 0.0000000000000000e+00  0.0000000000000000e+00 0.0000000000000000e+00 0.0000000000000000e+00  0.0000000000000000e+00 0.0000000000000000e+00 0.0000000000000000e+00  0.0000000000000000e+00 0.0000000000000000e+00 0.0000000000000000e+00  4.4279152405892835e-01 -4.5955115145337464e-03 0.0000000000000000e+00  3.9588772942932127e-01 -4.1222824952474341e-02 0.0000000000000000e+00  3.8225303619367338e-03 1.8031697885678730e-03 0.0000000000000000e+00  5.9441218319459515e-03 -1.9044799933196719e-03 0.0000000000000000e+00  4.1291269722002483e-01 7.6499149336496139e-02 0.0000000000000000e+00  2.3824505362271201e-01 9.0448569783642095e-03 0.0000000000000000e+00  5.7229973133355472e-01 2.7844686562376868e-02 0.0000000000000000e+00  1.7707386080093127e-01 -1.5135186574905181e-02 0.0000000000000000e+00  9.1436145447235524e-05 9.0161275330228905e-05 0.0000000000000000e+00  4.8781931886182475e-02 2.0097850677698297e-03 0.0000000000000000e+00  7.2558491963721300e-02 -1.0018984169111249e-02 0.0000000000000000e+00  6.0183749957852983e-04 6.5676202829518371e-05 0.0000000000000000e+00  7.6134968669783860e-04 -9.6645124236352279e-05 0.0000000000000000e+00  5.9560654656908285e-01 -1.5553991614731053e-01 0.0000000000000000e+00  6.0170893859106733e-01 1.4163934210668316e-01 0.0000000000000000e+00  6.4345423741634560e-03 -2.0284597869998336e-03 0.0000000000000000e+00  2.7873478036019361e-01 -4.9843502192283194e-02 0.0000000000000000e+00  2.7040559235037909e-01 -2.3700006162631525e-02 0.0000000000000000e+00  1.2040537359266495e-01 2.9405319216560314e-02 0.0000000000000000e+00  4.0456051790841263e-01 -5.7200578391339912e-03 0.0000000000000000e+00  5.2780836420653603e-03 9.0994109497832543e-03 0.0000000000000000e+00  2.5805159771155084e-01 -5.6496228048310358e-02 0.0000000000000000e+00  4.3495852174760599e-04 -3.7807816056895511e-04 0.0000000000000000e+00  4.8902173176618779e-01 -1.0639912461155523e-01 0.0000000000000000e+00  3.0407606788048863e-01 -6.2348127064698285e-02 0.0000000000000000e+00  5.0116560610851035e-01 -1.8618899592957466e-02 0.0000000000000000e+00  3.6251130621333327e-01 1.3094038795451575e-02 0.0000000000000000e+00  5.3867737990065767e-01 7.6647229263894015e-02 0.0000000000000000e+00  7.0522285062316623e-03 1.4041936389566487e-04 0.0000000000000000e+00  1.6795388419994013e-02 2.0102012239529791e-04 0.0000000000000000e+00  1.4725609070456105e-01 1.5408466418905864e-02 0.0000000000000000e+00  5.1334563149407397e-01 1.1394761192881778e-01 0.0000000000000000e+00  1.0544569532051201e-03 1.4415354443221625e-03 0.0000000000000000e+00  3.3033319575930065e-01 5.8719184050909007e-02 0.0000000000000000e+00  3.5738114709049551e-01 3.2675682446681065e-02 0.0000000000000000e+00  1.4619179705817826e-02 -7.4883297255375191e-03 0.0000000000000000e+00  1.7471375527182646e-02 8.0643172641237815e-03 0.0000000000000000e+00  4.4719122644943602e-04 1.3760568708220088e-04 0.0000000000000000e+00  7.2871029107422910e-04 -1.3995914534790452e-04 0.0000000000000000e+00  1.3545211605023771e-01 -2.3748600162381634e-02 0.0000000000000000e+00  6.4409203115559199e-01 3.2300812020073413e-02 0.0000000000000000e+00  2.6266921530728748e-01 -2.5184184285628859e-02 0.0000000000000000e+00  5.6168206442006163e-01 4.3054183919291694e-02 0.0000000000000000e+00  4.9526651631295776e-01 2.9943228382968992e-02 0.0000000000000000e+00  1.6595529151353491e-01 2.3873474014391512e-03 0.0000000000000000e+00  2.4975387125844199e-05 6.6273799620747746e-06 0.0000000000000000e+00  6.6688974030101128e-02 9.7597413415725096e-04 0.0000000000000000e+00  8.9933158500036317e-02 -2.2685564143232261e-02 0.0000000000000000e+00  8.1956672855332409e-04 -3.1866732255980265e-03 0.0000000000000000e+00  3.8821961228862573e-01 -1.8570292520779477e-02 0.0000000000000000e+00  6.8127750641433556e-03 4.4607243312154692e-03 0.0000000000000000e+00  3.0163469737102500e-01 -3.1432900361599077e-02 0.0000000000000000e+00  2.7143311344057391e-01 -2.7187328326571201e-02 0.0000000000000000e+00  2.1647867834975867e-01 3.0515368050066539e-02 0.0000000000000000e+00  2.7290384092123438e-01 -5.0216671935223313e-02 0.0000000000000000e+00  6.3136873754767564e-02 3.9331655731886387e-03 0.0000000000000000e+00  4.2886088368238329e-01 -4.9048893486385535e-04 0.0000000000000000e+00  2.8491774747738297e-01 -3.2405610503569930e-02 0.0000000000000000e+00  4.1652584169506934e-01 -1.9872335473108845e-02 0.0000000000000000e+00  2.7776238316545621e-01 1.3264226463896564e-02 0.0000000000000000e+00  9.4788775894825081e-02 7.5998373778460249e-02 0.0000000000000000e+00  1.4223223250852740e-01 -1.8142537460455341e-02 0.0000000000000000e+00  2.6233880627596815e-03 7.4647423248902110e-03 0.0000000000000000e+00  6.7470352147053873e-03 1.1392447766207825e-02 0.0000000000000000e+00  3.4624852288453255e-03 1.0617723121739149e-02 0.0000000000000000e+00  2.5481765534660500e-01 -5.5239454399474169e-02 0.0000000000000000e+00  2.5913542558547681e-01 -5.6774903829059226e-02 0.0000000000000000e+00  2.5825941417485138e-01 -5.6501046747867295e-02 0.0000000000000000e+00  2.8293685390864248e-01 -1.7416281992334356e-02 0.0000000000000000e+00  5.1709679265338537e-01 -6.8976519463119723e-02 0.0000000000000000e+00  2.6274032556840624e-04 1.5134439948303403e-04 0.0000000000000000e+00  6.1925776085684214e-01 4.6998909667585111e-02 0.0000000000000000e+00  1.4747197099607328e-03 -1.1429935438816720e-06 0.0000000000000000e+00  4.2902389507727579e-01 -1.1366737823239774e-01 0.0000000000000000e+00  5.8459087981921909e-01 8.4848414187114543e-03 0.0000000000000000e+00  4.3373047879287674e-01 8.1281004869255130e-03 0.0000000000000000e+00  1.9528239380779324e-02 2.1152689752159982e-03 0.0000000000000000e+00  5.3714907292025514e-05 -4.5016610533399069e-05 0.0000000000000000e+00  2.4039048130678930e-02 -2.6608760596856314e-03 0.0000000000000000e+00  4.1569632870493394e-04 -1.8958518504803878e-04 0.0000000000000000e+00  5.6247745902842716e-01 1.0120880434818942e-01 0.0000000000000000e+00  2.6524438980878173e-01 -6.5890479759534493e-02 0.0000000000000000e+00  1.0389878376285007e-03 -7.9974763578891468e-07 0.0000000000000000e+00  1.7065814128187373e-01 -1.4389026947627974e-02 0.0000000000000000e+00  5.6997439044841058e-01 -1.2896162879973727e-01 0.0000000000000000e+00  2.0878125239958639e-01 3.7599668567627781e-02 0.0000000000000000e+00  4.5969399097341511e-02 6.4895007575485131e-04 0.0000000000000000e+00  4.6250610287147165e-01 6.9886747550083853e-02 0.0000000000000000e+00  4.2727055173858058e-01 1.0596558476771767e-01 0.0000000000000000e+00  8.0112080721177079e-02 1.4250107075352887e-02 0.0000000000000000e+00  1.5943358613455813e-04 -2.9937321820155640e-04 0.0000000000000000e+00  5.2275445168996715e-01 -1.3788671415731699e-01 0.0000000000000000e+00  3.4127421073566339e-01 9.0536214957931613e-03 0.0000000000000000e+00  1.4358503160930660e-03 -2.8800897944669980e-03 0.0000000000000000e+00  4.0930969560829360e-02 -6.7183062348091360e-03 0.0000000000000000e+00  1.1736398883216433e-01 -9.9207862006965714e-03 0.0000000000000000e+00  4.2169680092356066e-01 2.3908232435347010e-02 0.0000000000000000e+00  2.3534379812595037e-03 2.3074421193195008e-04 0.0000000000000000e+00  1.2798774291236524e-03 3.9101780567126071e-03 0.0000000000000000e+00  5.3832632935903946e-01 4.5825478244212237e-02 0.0000000000000000e+00  2.9809296778822036e-01 8.7339376006093580e-03 0.0000000000000000e+00  2.5833968672162732e-04 7.4033572026029179e-04 0.0000000000000000e+00  3.8974072568495580e-03 3.2036012179140318e-03 0.0000000000000000e+00  3.6324477855145110e-01 5.7341610312448790e-02 0.0000000000000000e+00  3.1557124927400476e-01 -7.9392622243056599e-03 0.0000000000000000e+00  3.7552719418797725e-01 3.2781963939223689e-02 0.0000000000000000e+00  1.5765224536994529e-01 -4.0752841106730969e-02 0.0000000000000000e+00  5.2571687794604116e-01 4.8399952099698329e-02 0.0000000000000000e+00  9.4660059925934154e-02 -1.7840911535803222e-02 0.0000000000000000e+00  2.0541161083815172e-02 -1.0293295173829438e-02 0.0000000000000000e+00  1.8186610811984281e-02 8.2883343112526934e-03 0.0000000000000000e+00  2.6429573622279745e-01 -4.4097552228360287e-02 0.0000000000000000e+00  1.7415991136936040e-01 9.3393384720672733e-03 0.0000000000000000e+00  9.8680480609685151e-02 3.8418592215082722e-05 0.0000000000000000e+00  4.3371993698198580e-01 1.5429504500669612e-02 0.0000000000000000e+00  1.9012