<?xml version="1.0"?>
<VTKFile type="UnstructuredGrid"  version="0.1"  >
<UnstructuredGrid>
<Piece  NumberOfPoints="2868" NumberOfCells="5400">
<Points>
<DataArray  type="Float64"  NumberOfComponents="3"  format="ascii">0.534923 0.326073 0  0.510642 0.314196 0  0.466125 0.293082 0  0.436448 0.281205 0  0.409468 0.275927 0  0.368998 0.270648 0  0.35281 0.275927 0  0.381139 0.302319 0  0.405421 0.326073 0  0.410817 0.33531 0  0.408119 0.349826 0  0.400025 0.357744 0  0.375743 0.368301 0  0.329878 0.392055 0  0.297502 0.432963 0  0.282663 0.476511 0  0.285361 0.524018 0  0.298851 0.572845 0  0.317737 0.6045160000000001 0  0.337972 0.6361869999999999 0  0.360904 0.674457 0  0.368998 0.69953 0  0.359555 0.7219640000000001 0  0.360904 0.757594 0  0.370347 0.766831 0  0.381139 0.762872 0  0.390582 0.741758 0  0.404072 0.720644 0  0.424307 0.707448 0  0.447239 0.702169 0  0.480964 0.704808 0  0.479615 0.6889729999999999 0  0.468823 0.675776 0  0.447239 0.6691780000000001 0  0.428354 0.6691780000000001 0  0.410817 0.6639 0  0.404072 0.653343 0  0.395978 0.628269 0  0.387884 0.59132 0  0.389233 0.576804 0  0.397327 0.557009 0  0.410817 0.547772 0  0.424307 0.546452 0  0.437797 0.55305 0  0.44589 0.5662469999999999 0  0.441843 0.582082 0  0.439145 0.5979179999999999 0  0.449937 0.609795 0  0.468823 0.603196 0  0.479615 0.59 0  0.489058 0.570205 0  0.494454 0.546452 0  0.505246 0.522699 0  0.522783 0.509502 0  0.55246 0.494986 0  0.586185 0.484429 0  0.615863 0.48047 0  0.64554 0.473872 0  0.6671240000000001 0.461995 0  0.683312 0.451438 0  0.696802 0.435603 0  0.703547 0.417128 0  0.7116400000000001 0.393374 0  0.7183850000000001 0.37226 0  0.7251300000000001 0.364342 0  0.739969 0.353785 0  0.7453650000000001 0.344548 0  0.7453650000000001 0.327393 0  0.737271 0.318155 0  0.7183850000000001 0.316835 0  0.7008490000000001 0.319475 0  0.677916 0.318155 0  0.650936 0.316835 0  0.610467 0.318155 0  0.57944 0.324753 0  0.559205 0.328712 0  0.5389699999999999 0.326073 0  1 1 0  1 0 0  0 0 0  0 1 0  0.532238 0.32476 0  0.528748 0.323052 0  0.52421 0.320833 0  0.518311 0.317947 0  0.503447 0.310783 0  0.494093 0.306347 0  0.481933 0.30058 0  0.452151 0.28749 0  0.392327 0.273691 0  0.379141 0.271971 0  0.360474 0.283066 0  0.369797 0.291752 0  0.391424 0.31238 0  0.399335 0.32012 0  0.40958 0.341964 0  0.393939 0.36039 0  0.386028 0.36383 0  0.364248 0.374254 0  0.349304 0.381994 0  0.315801 0.409841 0  0.292986 0.551616 0  0.350934 0.657818 0  0.360127 0.737055 0  0.360566 0.748664 0  0.385245 0.753692 0  0.396447 0.732578 0  0.466301 0.703661 0  0.459439 0.672908 0  0.418442 0.666195 0  0.400553 0.642441 0  0.39255 0.612619 0  0.389913 0.60058 0  0.392752 0.568197 0  0.444131 0.573132 0  0.458149 0.606926 0  0.5005540000000001 0.533026 0  0.571522 0.489019 0  0.632637 0.476741 0  0.689177 0.444553 0  0.708121 0.403702 0  0.715453 0.38144 0  0.732406 0.359166 0  0.7453650000000001 0.337089 0  0.72906 0.317581 0  0.629879 0.317522 0  0.59293 0.321884 0  0.568003 0.326991 0  0.55202 0.327775 0  0.546493 0.327054 0  0.542241 0.326499 0  1 0.9 0  1 0.8 0  1 0.7 0  1 0.6 0  1 0.5 0  1 0.4 0  1 0.3 0  1 0.2 0  1 0.1 0  0.9 0 0  0.8 0 0  0.7 0 0  0.6 0 0  0.5 0 0  0.4 0 0  0.3 0 0  0.2 0 0  0.1 0 0  0.1 1 0  0.2 1 0  0.3 1 0  0.4 1 0  0.5 1 0  0.6 1 0  0.7 1 0  0.8 1 0  0.9 1 0  0 0.1 0  0 0.2 0  0 0.3 0  0 0.4 0  0 0.5 0  0 0.6 0  0 0.7 0  0 0.8 0  0 0.9 0  0.535686 0.5031910000000001 0  0.753987 0.733359 0  0.167145 0.741436 0  0.173378 0.257204 0  0.733497 0.159862 0  0.554096 0.15788 0  0.849187 0.479053 0  0.488793 0.838452 0  0.138507 0.5592 0  0.30686 0.154944 0  0.348904 0.890523 0  0.058006 0.065099 0  0.06984899999999999 0.937917 0  0.93633 0.939704 0  0.934625 0.053613 0  0.343397 0.333452 0  0.473272 0.639943 0  0.433266 0.638072 0  0.415174 0.58269 0  0.533435 0.545042 0  0.390848 0.340652 0  0.53655 0.320242 0  0.127966 0.393775 0  0.83861 0.850455 0  0.635242 0.8551299999999999 0  0.852158 0.633441 0  0.653427 0.626848 0  0.861226 0.24292 0  0.166128 0.12976 0  0.216875 0.8698709999999999 0  0.458305 0.11179 0  0.84446 0.101633 0  0.202024 0.642528 0  0.644825 0.115855 0  0.671342 0.218358 0  0.251354 0.286186 0  0.262388 0.75153 0  0.063044 0.751571 0  0.068189 0.242962 0  0.435781 0.9053949999999999 0  0.934144 0.451133 0  0.568393 0.237622 0  0.814984 0.395506 0  0.752951 0.517227 0  0.456254 0.780699 0  0.073352 0.531116 0  0.337731 0.206071 0  0.363213 0.960371 0  0.330742 0.363592 0  0.516613 0.55705 0  0.369057 0.332992 0  0.500926 0.617309 0  0.498004 0.665534 0  0.412142 0.61178 0  0.454233 0.6366039999999999 0  0.422782 0.567496 0  0.541193 0.5214800000000001 0  0.439761 0.65557 0  0.5163 0.533672 0  0.414775 0.64562 0  0.40073 0.576135 0  0.430362 0.5880339999999999 0  0.385432 0.351492 0  0.400298 0.335397 0  0.398325 0.348194 0  0.528702 0.314885 0  0.540814 0.322334 0  0.534477 0.322953 0  0.619095 0.743583 0  0.885162 0.737972 0  0.08076 0.668849 0  0.90734 0.36634 0  0.09468699999999999 0.868937 0  0.759838 0.912152 0  0.901518 0.540898 0  0.747285 0.607479 0  0.229182 0.071641 0  0.06915399999999999 0.450091 0  0.244775 0.203309 0  0.076534 0.331755 0  0.897847 0.167826 0  0.578909 0.911415 0  0.07713299999999999 0.146341 0  0.477215 0.203448 0  0.922631 0.869341 0  0.517415 0.074785 0  0.297026 0.827793 0  0.7832710000000001 0.246505 0  0.74519 0.061079 0  0.36033 0.069068 0  0.210313 0.475228 0  0.859426 0.928758 0  0.5745479999999999 0.609182 0  0.243069 0.383398 0  0.283099 0.934598 0  0.417416 0.843141 0  0.643942 0.553164 0  0.112687 0.079336 0  0.281357 0.658386 0  0.765043 0.436177 0  0.611361 0.198486 0  0.234496 0.58911 0  0.206479 0.702638 0  0.679608 0.155818 0  0.62682 0.259978 0  0.690538 0.264164 0  0.448938 0.956308 0  0.808154 0.328403 0  0.379583 0.91913 0  0.308083 0.297769 0  0.312358 0.730249 0  0.563101 0.278576 0  0.435597 0.746198 0  0.385475 0.225229 0  0.572248 0.518034 0  0.357864 0.35422 0  0.497647 0.641694 0  0.458101 0.655768 0  0.360474 0.310727 0  0.467038 0.620139 0  0.47798 0.659909 0  0.41102 0.628072 0  0.48324 0.609015 0  0.427544 0.617941 0  0.388633 0.328253 0  0.405336 0.599404 0  0.408351 0.565178 0  0.42395 0.600985 0  0.431562 0.576523 0  0.424905 0.6551979999999999 0  0.398064 0.58782 0  0.427739 0.557934 0  0.5192909999999999 0.303443 0  0.53142 0.320293 0  0.5449000000000001 0.323642 0  0.537166 0.323513 0  0.153974 0.920841 0  0.9181859999999999 0.67343 0  0.759946 0.820588 0  0.5375259999999999 0.783091 0  0.816532 0.545843 0  0.813991 0.178083 0  0.836774 0.702023 0  0.149815 0.318856 0  0.662287 0.923338 0  0.680146 0.791192 0  0.708961 0.663172 0  0.9372779999999999 0.287318 0  0.574622 0.6881660000000001 0  0.5894740000000001 0.076262 0  0.502822 0.926683 0  0.222269 0.811068 0  0.380457 0.164786 0  0.15321 0.684154 0  0.458063 0.051413 0  0.161702 0.056026 0  0.199351 0.198818 0  0.298946 0.09553200000000001 0  0.902465 0.795949 0  0.121139 0.791477 0  0.906269 0.112287 0  0.056109 0.822332 0  0.512172 0.13237 0  0.940964 0.741805 0  0.888887 0.408777 0  0.354543 0.825964 0  0.808736 0.068638 0  0.068507 0.394071 0  0.719105 0.563843 0  0.247287 0.149664 0  0.293062 0.237128 0  0.240524 0.434997 0  0.141255 0.623289 0  0.945202 0.160621 0  0.502914 0.247629 0  0.144669 0.480811 0  0.665025 0.060817 0  0.728047 0.224344 0  0.861995 0.313312 0  0.200068 0.534235 0  0.253262 0.965623 0  0.893804 0.49307 0  0.604391 0.572456 0  0.947088 0.345347 0  0.439372 0.227307 0  0.629847 0.159823 0  0.273405 0.880181 0  0.302744 0.776823 0  0.781502 0.295365 0  0.275342 0.349602 0  0.7283849999999999 0.472798 0  0.229136 0.246478 0  0.807794 0.480346 0  0.709476 0.112786 0  0.275506 0.694991 0  0.771674 0.394419 0  0.449715 0.861802 0  0.419159 0.799696 0  0.674851 0.503139 0  0.280443 0.61016 0  0.572443 0.192538 0  0.393113 0.87525 0  0.405555 0.948428 0  0.330942 0.934103 0  0.540509 0.597101 0  0.312763 0.6689310000000001 0  0.254368 0.540179 0  0.595265 0.25915 0  0.606679 0.234099 0  0.657131 0.279138 0  0.722458 0.279478 0  0.333 0.308056 0  0.351529 0.246142 0  0.455714 0.7257940000000001 0  0.585239 0.295143 0  0.340062 0.72492 0  0.545593 0.293773 0  0.555449 0.545426 0  0.414311 0.737314 0  0.590854 0.502323 0  0.350507 0.368444 0  0.484423 0.625665 0  0.483899 0.674542 0  0.378137 0.317274 0  0.446416 0.646404 0  0.373532 0.347654 0  0.446876 0.619769 0  0.466106 0.666068 0  0.437545 0.609254 0  0.434988 0.565726 0  0.41462 0.656829 0  0.418803 0.556961 0  0.398425 0.327446 0  0.517803 0.310421 0  0.549516 0.322918 0  0.57701 0.842889 0  0.8291269999999999 0.773906 0  0.643235 0.684732 0  0.134281 0.207734 0  0.865997 0.055966 0  0.680959 0.723345 0  0.165229 0.8415550000000001 0  0.54558 0.959672 0  0.783726 0.656439 0  0.913315 0.595533 0  0.699439 0.860667 0  0.785839 0.125076 0  0.551673 0.037713 0  0.9200970000000001 0.223214 0  0.206406 0.299726 0  0.087064 0.596401 0  0.935644 0.394252 0  0.964557 0.252582 0  0.230124 0.928346 0  0.120579 0.271764 0  0.8572149999999999 0.524082 0  0.7670979999999999 0.5551469999999999 0  0.936094 0.507131 0  0.804064 0.59585 0  0.700565 0.608273 0  0.429773 0.174231 0  0.117746 0.727333 0  0.5389620000000001 0.730231 0  0.862761 0.359173 0  0.821444 0.284046 0  0.193552 0.35818 0  0.234923 0.505555 0  0.193209 0.421217 0  0.220144 0.755896 0  0.594015 0.131642 0  0.283813 0.195855 0  0.517519 0.213961 0  0.553509 0.639116 0  0.280391 0.378018 0  0.852183 0.436817 0  0.746983 0.197173 0  0.821806 0.221318 0  0.449853 0.828453 0  0.883758 0.453926 0  0.183484 0.589542 0  0.348384 0.129314 0  0.255254 0.838525 0  0.504849 0.798516 0  0.320344 0.863432 0  0.611669 0.525425 0  0.265864 0.804962 0  0.72056 0.521442 0  0.613372 0.6101220000000001 0  0.481262 0.881068 0  0.655778 0.191988 0  0.701921 0.196918 0  0.5658260000000001 0.5731810000000001 0  0.46914 0.240927 0  0.343219 0.173284 0  0.888786 0.278502 0  0.244113 0.6750930000000001 0  0.739546 0.417914 0  0.784023 0.355942 0  0.326805 0.265549 0  0.248616 0.6
[...]
<PointData  Vectors="f_21"> 
<DataArray  type="Float64"  Name="f_21"  NumberOfComponents="3" format="ascii">1.3621507810867690e+00 2.6422686816016594e-01 0.0000000000000000e+00  1.3104604325710165e+00 3.0214063900098564e-01 0.0000000000000000e+00  1.1488015444059516e+00 3.6437751402170909e-01 0.0000000000000000e+00  1.0045676250734628e+00 3.8792449351049324e-01 0.0000000000000000e+00  8.6768699733548083e-01 3.8884650127947867e-01 0.0000000000000000e+00  6.3417402325674443e-01 3.7507042460429774e-01 0.0000000000000000e+00  4.9522617694441323e-01 3.3578210121060154e-01 0.0000000000000000e+00  3.3896538615169225e-01 4.2474521400581150e-01 0.0000000000000000e+00  2.5760500778996620e-01 4.9805841974676296e-01 0.0000000000000000e+00  2.2682086935731813e-01 5.1588075019884183e-01 0.0000000000000000e+00  1.7810089282057187e-01 5.0675557008879568e-01 0.0000000000000000e+00  1.5131043174506792e-01 4.7928213277727466e-01 0.0000000000000000e+00  1.1690142273390187e-01 3.9348589012982127e-01 0.0000000000000000e+00  6.4567643625045273e-02 2.1794239446553212e-01 0.0000000000000000e+00  1.7756471433071293e-02 8.5484059821365407e-02 0.0000000000000000e+00  -5.2727289817131430e-03 -1.3244889852409155e-02 0.0000000000000000e+00  -7.7544435007031896e-03 -1.0516165465435377e-01 0.0000000000000000e+00  6.8484890507636304e-03 -2.0577407595812033e-01 0.0000000000000000e+00  3.8123820735626146e-02 -2.9572260300500597e-01 0.0000000000000000e+00  9.4084166144601036e-02 -3.9131812016575035e-01 0.0000000000000000e+00  1.9916479091457365e-01 -5.0521911109757045e-01 0.0000000000000000e+00  2.8629657691365445e-01 -5.4934273915016529e-01 0.0000000000000000e+00  3.7214249155158308e-01 -5.3533817487109880e-01 0.0000000000000000e+00  6.2919652199809206e-01 -5.7650649150843503e-01 0.0000000000000000e+00  8.3322901922238635e-01 -6.2863796697353957e-01 0.0000000000000000e+00  1.0022011706719629e+00 -6.3317045871999100e-01 0.0000000000000000e+00  1.2561562322587769e+00 -6.1885453178547123e-01 0.0000000000000000e+00  1.3843259537354677e+00 -5.6072257867472142e-01 0.0000000000000000e+00  1.4410968127769259e+00 -4.9496109879515027e-01 0.0000000000000000e+00  1.4685731704168010e+00 -4.4568582415090624e-01 0.0000000000000000e+00  1.5541474743385821e+00 -4.4818649580237196e-01 0.0000000000000000e+00  1.6963895205700066e+00 -4.8684554341034381e-01 0.0000000000000000e+00  1.7722070493954201e+00 -5.3596133953878544e-01 0.0000000000000000e+00  1.8031995605199227e+00 -6.2171533149048874e-01 0.0000000000000000e+00  1.8020860451482370e+00 -7.0181694549413864e-01 0.0000000000000000e+00  1.8242189033205931e+00 -7.7838871639241936e-01 0.0000000000000000e+00  1.8697530219917760e+00 -8.0822056643154983e-01 0.0000000000000000e+00  1.9795037613958684e+00 -8.4703403627692853e-01 0.0000000000000000e+00  2.1504054634062824e+00 -8.8855537836819110e-01 0.0000000000000000e+00  2.2190136493770374e+00 -8.8268281089682954e-01 0.0000000000000000e+00  2.3123981993699871e+00 -8.4478841340826882e-01 0.0000000000000000e+00  2.3557027000467570e+00 -7.8162135426065560e-01 0.0000000000000000e+00  2.3618558521533592e+00 -7.1866887116562495e-01 0.0000000000000000e+00  2.3310910726988441e+00 -6.5566876825091003e-01 0.0000000000000000e+00  2.2691808574898977e+00 -6.1755954223969967e-01 0.0000000000000000e+00  2.1939825028299080e+00 -6.3662519934060302e-01 0.0000000000000000e+00  2.1164295291935420e+00 -6.5130989555643903e-01 0.0000000000000000e+00  2.0532520626805182e+00 -6.0594483367451291e-01 0.0000000000000000e+00  2.0655391939440415e+00 -5.2705695472167380e-01 0.0000000000000000e+00  2.1016278869051863e+00 -4.8290910138545601e-01 0.0000000000000000e+00  2.1551749098110857e+00 -4.4574352988498611e-01 0.0000000000000000e+00  2.2181786191211854e+00 -4.2507251529380125e-01 0.0000000000000000e+00  2.2803930199621019e+00 -3.9251513785371994e-01 0.0000000000000000e+00  2.3136345992597129e+00 -3.4283928704248740e-01 0.0000000000000000e+00  2.3450527942875543e+00 -2.6005283121141803e-01 0.0000000000000000e+00  2.3606054038069080e+00 -1.7010800444756996e-01 0.0000000000000000e+00  2.3555061038772100e+00 -9.3106657346443703e-02 0.0000000000000000e+00  2.3458039942334183e+00 -1.5342329420101058e-02 0.0000000000000000e+00  2.3390817558630630e+00 3.7706579542735340e-02 0.0000000000000000e+00  2.3271853358890846e+00 8.0845098506274068e-02 0.0000000000000000e+00  2.3074956833459486e+00 1.2155071934194708e-01 0.0000000000000000e+00  2.2769559083016708e+00 1.5174135756860441e-01 0.0000000000000000e+00  2.2319940015510791e+00 1.7748158699181943e-01 0.0000000000000000e+00  2.1866432631669888e+00 1.8731061891371448e-01 0.0000000000000000e+00  2.1707862481038629e+00 1.8350035576520177e-01 0.0000000000000000e+00  2.1371530414602118e+00 1.8502514235555756e-01 0.0000000000000000e+00  2.0911731632401054e+00 1.9159621691679679e-01 0.0000000000000000e+00  1.9729219701473859e+00 2.0253834711539948e-01 0.0000000000000000e+00  1.8701604427030811e+00 2.1113679414433842e-01 0.0000000000000000e+00  1.7646952634305209e+00 2.0267482169722451e-01 0.0000000000000000e+00  1.7067541883318871e+00 1.9770344597556219e-01 0.0000000000000000e+00  1.6466575629498916e+00 2.0492743729152546e-01 0.0000000000000000e+00  1.5705957225690628e+00 2.1623256008744984e-01 0.0000000000000000e+00  1.4633276304974028e+00 2.2874201805976577e-01 0.0000000000000000e+00  1.4019614539661678e+00 2.3229291206540120e-01 0.0000000000000000e+00  1.3826796254947085e+00 2.4023116573170133e-01 0.0000000000000000e+00  1.3643830147561744e+00 2.5936665854790980e-01 0.0000000000000000e+00  1.7368954216927253e+00 2.1618411775288743e-01 0.0000000000000000e+00  1.5799679610421122e+00 -1.1183094463994211e-01 0.0000000000000000e+00  0.0000000000000000e+00 0.0000000000000000e+00 0.0000000000000000e+00  0.0000000000000000e+00 0.0000000000000000e+00 0.0000000000000000e+00  1.3586592098037269e+00 2.6828175413715966e-01 0.0000000000000000e+00  1.3527494097067270e+00 2.7367202479440123e-01 0.0000000000000000e+00  1.3437218766849526e+00 2.8073954892986519e-01 0.0000000000000000e+00  1.3304156914439724e+00 2.9010089831521807e-01 0.0000000000000000e+00  1.2897855938923468e+00 3.1306543685989308e-01 0.0000000000000000e+00  1.2598177105525294e+00 3.2717854529434198e-01 0.0000000000000000e+00  1.2162495491998926e+00 3.4417383542406282e-01 0.0000000000000000e+00  1.0859719137203268e+00 3.7797043803996155e-01 0.0000000000000000e+00  7.8155983274188912e-01 3.8330357010230715e-01 0.0000000000000000e+00  7.0900268089691010e-01 3.7940509656569865e-01 0.0000000000000000e+00  4.2963731506363395e-01 3.6913994337159889e-01 0.0000000000000000e+00  3.8188691677785852e-01 3.9432650004742853e-01 0.0000000000000000e+00  3.0334339106503827e-01 4.5398771427595347e-01 0.0000000000000000e+00  2.7738583119595162e-01 4.7843965948426798e-01 0.0000000000000000e+00  2.0456247544279277e-01 5.1171410368295078e-01 0.0000000000000000e+00  1.4236232593997225e-01 4.5831330608867660e-01 0.0000000000000000e+00  1.3093307763263309e-01 4.3059508414157222e-01 0.0000000000000000e+00  9.9737437187512976e-02 3.5060829511331909e-01 0.0000000000000000e+00  8.1279525621586107e-02 2.9394472724315357e-01 0.0000000000000000e+00  4.0398159439410219e-02 1.5908039324309450e-01 0.0000000000000000e+00  -1.5177084525299419e-03 -1.5968014075679635e-01 0.0000000000000000e+00  1.4804179938679160e-01 -4.5615150304906876e-01 0.0000000000000000e+00  4.5159578736068018e-01 -5.5902033180634503e-01 0.0000000000000000e+00  5.3403677658260462e-01 -5.7541969491417899e-01 0.0000000000000000e+00  1.1477055359397830e+00 -6.3860546836663312e-01 0.0000000000000000e+00  1.3199488802892623e+00 -5.9232064452389621e-01 0.0000000000000000e+00  1.4949359520000569e+00 -4.2906396856773649e-01 0.0000000000000000e+00  1.7871433762354669e+00 -5.7232160767523421e-01 0.0000000000000000e+00  1.8144627199285659e+00 -7.4498089782849031e-01 0.0000000000000000e+00  1.9169121777415510e+00 -8.2460962869267007e-01 0.0000000000000000e+00  2.0505109379346420e+00 -8.6475828130963694e-01 0.0000000000000000e+00  2.1066889465123686e+00 -8.7839409207679475e-01 0.0000000000000000e+00  2.2597053224471706e+00 -8.6624507569365916e-01 0.0000000000000000e+00  2.2366519549596369e+00 -6.2578635169053543e-01 0.0000000000000000e+00  2.0586711157903359e+00 -5.7143908794822007e-01 0.0000000000000000e+00  2.2532917047165308e+00 -4.0636213891154882e-01 0.0000000000000000e+00  2.3543605691097365e+00 -2.0873249134382096e-01 0.0000000000000000e+00  2.3517853118373981e+00 -4.9542844680966237e-02 0.0000000000000000e+00  2.3195671799725188e+00 9.9550270787256132e-02 0.0000000000000000e+00  2.2526034411771616e+00 1.6793111766060018e-01 0.0000000000000000e+00  2.2062088359088232e+00 1.8525452169906048e-01 0.0000000000000000e+00  2.1566517297088446e+00 1.8227264465809204e-01 0.0000000000000000e+00  2.0459182612697862e+00 2.0494136469404950e-01 0.0000000000000000e+00  1.8172582384688880e+00 2.0519309821352208e-01 0.0000000000000000e+00  1.5131965160703997e+00 2.2232456286806634e-01 0.0000000000000000e+00  1.4235155053909745e+00 2.3032698850815439e-01 0.0000000000000000e+00  1.3889868583894600e+00 2.3570769900155444e-01 0.0000000000000000e+00  1.3771247817102672e+00 2.4597702917194442e-01 0.0000000000000000e+00  1.3718103859234310e+00 2.5133989088520731e-01 0.0000000000000000e+00  1.3676040208307980e+00 2.5575164961687796e-01 0.0000000000000000e+00  1.9007757863657506e+00 2.5612275942111518e-01 0.0000000000000000e+00  2.0782557048917316e+00 2.8272097250941453e-01 0.0000000000000000e+00  2.2396055690600880e+00 2.7144631390674528e-01 0.0000000000000000e+00  2.3575283588541103e+00 2.1388814677258569e-01 0.0000000000000000e+00  2.3922671887232294e+00 1.0439683861830956e-01 0.0000000000000000e+00  2.3229273626496711e+00 -1.8133480396346144e-02 0.0000000000000000e+00  2.1529272909366393e+00 -1.0817028876948996e-01 0.0000000000000000e+00  1.9513413389175944e+00 -1.3579473845497333e-01 0.0000000000000000e+00  1.7656520712349397e+00 -1.3261484584887306e-01 0.0000000000000000e+00  1.4799645007005913e+00 7.8928494094875443e-02 0.0000000000000000e+00  1.3727870964350180e+00 2.5413615316027788e-01 0.0000000000000000e+00  1.2497964014529854e+00 3.8612475987068945e-01 0.0000000000000000e+00  1.1095132355272754e+00 4.8209549646071814e-01 0.0000000000000000e+00  9.7184402625554112e-01 5.4736326529512747e-01 0.0000000000000000e+00  8.4523445713658651e-01 5.5086234844066528e-01 0.0000000000000000e+00  7.0317287603162870e-01 4.6317719293663706e-01 0.0000000000000000e+00  5.1352430484281020e-01 3.1392974232391757e-01 0.0000000000000000e+00  2.8184338682533011e-01 1.6655537247818306e-01 0.0000000000000000e+00  3.3346737838557527e-01 -2.1803961325881438e-01 0.0000000000000000e+00  5.8591439900121378e-01 -3.9937520458168924e-01 0.0000000000000000e+00  7.7159760620277007e-01 -5.8590108625881687e-01 0.0000000000000000e+00  8.7290571115019233e-01 -6.6589026857848932e-01 0.0000000000000000e+00  9.6916525224913086e-01 -5.7323161434922765e-01 0.0000000000000000e+00  1.1107779332469785e+00 -3.9443554179813844e-01 0.0000000000000000e+00  1.2952984142757271e+00 -2.0711220938199734e-01 0.0000000000000000e+00  1.4810135974045351e+00 -6.0692973333227103e-02 0.0000000000000000e+00  1.6296012363609707e+00 6.5748490579396843e-02 0.0000000000000000e+00  0.0000000000000000e+00 0.0000000000000000e+00 0.0000000000000000e+00  0.0000000000000000e+00 0.0000000000000000e+00 0.0000000000000000e+00  0.0000000000000000e+00 0.0000000000000000e+00 0.0000000000000000e+00  0.0000000000000000e+00 0.0000000000000000e+00 0.0000000000000000e+00  0.0000000000000000e+00 0.0000000000000000e+00 0.0000000000000000e+00  0.0000000000000000e+00 0.0000000000000000e+00 0.0000000000000000e+00  0.0000000000000000e+00 0.0000000000000000e+00 0.0000000000000000e+00  0.0000000000000000e+00 0.0000000000000000e+00 0.0000000000000000e+00  0.0000000000000000e+00 0.0000000000000000e+00 0.0000000000000000e+00  2.3278522120802601e+00 -3.0645719911233971e-01 0.0000000000000000e+00  1.9094686080298269e+00 3.7866906544095788e-02 0.0000000000000000e+00  2.0024590030339792e-01 -1.1198667144797951e-01 0.0000000000000000e+00  1.9752731892802672e-01 5.2913018541828429e-02 0.0000000000000000e+00  1.5352227979463298e+00 2.6525297123293567e-01 0.0000000000000000e+00  1.1680881261611877e+00 4.1193913846949209e-01 0.0000000000000000e+00  2.3244336120507998e+00 1.1469223114334963e-01 0.0000000000000000e+00  1.1571373610564868e+00 -4.8381595320241405e-01 0.0000000000000000e+00  -2.7124699502635778e-03 -4.2054229579295631e-02 0.0000000000000000e+00  6.0733071726302412e-01 3.5454080266497506e-01 0.0000000000000000e+00  7.9649726868473048e-01 -5.9075412836386310e-01 0.0000000000000000e+00  1.1862430264199815e-01 5.9471282685804761e-02 0.0000000000000000e+00  1.7108476617403301e-01 -1.0802192716955290e-01 0.0000000000000000e+00  1.7661005673377519e+00 1.4190569035899567e-01 0.0000000000000000e+00  1.6173986321147769e+00 -3.7539305548371644e-03 0.0000000000000000e+00  2.2415941460566449e-01 2.8552599742012308e-01 0.0000000000000000e+00  1.9269869057613198e+00 -5.1288111526005975e-01 0.0000000000000000e+00  1.9348339256648046e+00 -6.7954376118686277e-01 0.0000000000000000e+00  2.1907727967580959e+00 -7.6168878766174708e-01 0.0000000000000000e+00  2.2207152331709263e+00 -3.1290822992699285e-01 0.0000000000000000e+00  2.0874877408744857e-01 4.4865658044130163e-01 0.0000000000000000e+00  1.3531563102330046e+00 2.6366671392064284e-01 0.0000000000000000e+00  2.5683177463960042e-02 -2.8381639476533462e-02 0.0000000000000000e+00  1.7965803536911800e+00 6.5443952167474478e-02 0.0000000000000000e+00  1.4445494479189691e+00 -2.2670409863855884e-01 0.0000000000000000e+00  2.2078321677880770e+00 1.4763179073477825e-01 0.0000000000000000e+00  2.0341361791538528e+00 -3.5705747726718515e-02 0.0000000000000000e+00  1.8986110093964039e+00 6.9160532150151194e-02 0.0000000000000000e+00  3.0426645245134404e-01 1.5601007949005807e-01 0.0000000000000000e+00  4.6862725162744623e-01 -3.1837373432515165e-01 0.0000000000000000e+00  9.3562803248107962e-01 5.0073893334965047e-01 0.0000000000000000e+00  1.6016533904699519e+00 1.3997313268537603e-01 0.0000000000000000e+00  7.5593796148348782e-02 -1.0247037763865070e-01 0.0000000000000000e+00  1.3071880481816467e+00 3.7506280230424299e-01 0.0000000000000000e+00  1.5106696048081265e+00 2.8436938515643351e-01 0.0000000000000000e+00  2.7329254869546138e-01 1.0810655835448919e-01 0.0000000000000000e+00  3.8135380797612389e-01 -2.6223175658371073e-01 0.0000000000000000e+00  7.0558844834247639e-02 -2.1071028436725026e-02 0.0000000000000000e+00  6.9413356955401767e-02 9.6373078893596950e-04 0.0000000000000000e+00  9.6154068215929289e-01 -6.0406337837794899e-01 0.0000000000000000e+00  2.3394764501001650e+00 7.7456488991119843e-02 0.0000000000000000e+00  1.2953214298707392e+00 3.1800360405692463e-01 0.0000000000000000e+00  2.2407381959871162e+00 9.3122328331695731e-02 0.0000000000000000e+00  2.2909300963772394e+00 1.1610073613927752e-01 0.0000000000000000e+00  1.2070480582468093e+00 -4.8174417423926286e-01 0.0000000000000000e+00  -2.7130209268099578e-03 -1.8110076450317748e-02 0.0000000000000000e+00  6.4594741531202282e-01 3.6325903397361109e-01 0.0000000000000000e+00  8.2586902893837888e-01 -6.3450477958670970e-01 0.0000000000000000e+00  1.3531755978559190e-01 2.3135740280949868e-01 0.0000000000000000e+00  2.1900684233354961e+00 -3.6232219169315905e-01 0.0000000000000000e+00  2.3176316696612700e-01 3.7552966722583686e-01 0.0000000000000000e+00  2.0113327768440450e+00 -4.1085804587654706e-01 0.0000000000000000e+00  1.8183732130176253e+00 -4.1204314325269548e-01 0.0000000000000000e+00  2.0532886817318836e+00 -7.7479321656479683e-01 0.0000000000000000e+00  1.9405254137398069e+00 -5.8966030532954739e-01 0.0000000000000000e+00  2.2631105259586621e+00 -7.2596885639767950e-01 0.0000000000000000e+00  2.2806187595322003e+00 -2.9070614248399712e-01 0.0000000000000000e+00  1.8604498835190810e+00 -6.5254141497993656e-01 0.0000000000000000e+00  2.2513423818376630e+00 -3.6191686138195295e-01 0.0000000000000000e+00  1.9029424758756444e+00 -7.6129586566606400e-01 0.0000000000000000e+00  2.2220748034142157e+00 -8.2874716347785171e-01 0.0000000000000000e+00  2.1649423414521380e+00 -6.9147080522258186e-01 0.0000000000000000e+00  1.7264798052060576e-01 4.2894362453812257e-01 0.0000000000000000e+00  2.2652040990116346e-01 4.8080214545900773e-01 0.0000000000000000e+00  1.8363107041583202e-01 4.7363796761425925e-01 0.0000000000000000e+00  1.3336545805628821e+00 2.7566129196195355e-01 0.0000000000000000e+00  1.3605605152530422e+00 2.5836695559392214e-01 0.0000000000000000e+00  1.3563970279191402e+00 2.6539293394480346e-01 0.0000000000000000e+00  1.6705442646475142e+00 -1.5911022612584613e-01 0.0000000000000000e+00  2.0699747521257961e+00 1.5334953636763080e-01 0.0000000000000000e+00  4.3205904337572473e-02 -1.5228016772556748e-02 0.0000000000000000e+00  2.2198055966852590e+00 3.6247985329647729e-02 0.0000000000000000e+00  1.8554715166359217e-01 -1.0541029377331744e-01 0.0000000000000000e+00  1.5561617250356572e+00 -6.1905782418076927e-02 0.0000000000000000e+00  2.3346692082342630e+00 1.3955799868682900e-01 0.0000000000000000e+00  2.1568235875059991e+00 8.9301565173815114e-02 0.0000000000000000e+00  4.9134404286923605e-01 3.0585166717987960e-01 0.0000000000000000e+00  6.3251118765783262e-04 -2.2461889445544007e-02 0.0000000000000000e+00  4.0924327041966763e-01 1.9432765548762504e-01 0.0000000000000000e+00  3.8104348900543830e-02 -1.8646851625024944e-02 0.0000000000000000e+00  1.7915717434221428e+00 3.5793401888350743e-02 0.0000000000000000e+00  1.2307633334393171e+00 -3.8012283140953307e-01 0.0000000000000000e+00  1.2099877199860092e-01 4.1467709033745984e-02 0.0000000000000000e+00  1.0143748469847624e+00 4.3006526188354044e-01 0.0000000000000000e+00  1.8730065441623496e+00 1.5148150975850125e-01 0.0000000000000000e+00  1.0315507460684528e+00 4.9928929993317828e-01 0.0000000000000000e+00  6.4562486425252896e-01 -4.4268191871248236e-01 0.0000000000000000e+00  1.7784959620432121e+00 1.6534280863293127e-01 0.0000000000000000e+00  1.3946705527630279e+00 3.0302979861975515e-01 0.0000000000000000e+00  7.5627102598586116e-01 4.8787279365315445e-01 0.0000000000000000e+00  -1.4944509538420137e-02 -4.2294600374088179e-02 0.0000000000000000e+00  1.6834612308740797e+00 4.8586784213445484e-02 0.0000000000000000e+00  2.0414553348836533e+00 -1.9652940103290095e-01 0.0000000000000000e+00  7.2843542010134640e-02 2.9126372083984574e-02 0.0000000000000000e+00  6.7354361056945178e-01 -5.1405990030745952e-01 0.0000000000000000e+00  9.6568687376705875e-01 -5.9109393577039182e-01 0.0000000000000000e+00  2.2018204803596295e+00 -3.1082877642394535e-02 0.0000000000000000e+00  2.2913062661125186e-01 1.2335973690289158e-01 0.0000000000000000e+00  1.3495733921769329e-01 -2.3827316696471132e-01 0.0000000000000000e+00  2.3002270576885522e+00 1.2541730591430930e-01 0.0000000000000000e+00  1.3489410997479367e+00 3.3378226726068566e-01 0.0000000000000000e+00  1.3539504988820478e-02 -1.1746269298667215e-01 0.0000000000000000e+00  1.8266311213565278e-01 -1.3466254383846959e-01 0.0000000000000000e+00  1.4306917771294068e+00 3.1886320047516775e-01 0.0000000000000000e+00  1.4663206722524167e+00 2.7090112018125301e-01 0.0000000000000000e+00  1.6228186476915261e+00 2.4649743192318910e-01 0.0000000000000000e+00  9.4943011554338097e-01 -6.1554203804956176e-01 0.0000000000000000e+00  2.0541667931351899e+00 8.8809153717117659e-02 0.0000000000000000e+00  8.5210824345645930e-01 -6.2553886280774862e-01 0.0000000000000000e+00  3.2299986891771504e-01 1.9693214865528225e-01 0.0000000000000000e+00  3.8576283997656480e-01 -3.5782573968461223e-01 0.0000000000000000e+00  1.3376898199828595e+00 2.7526102319930529e-01 0.0000000000000000e+00  1.2946657471623948e+00 -4.8077747144229016e-01 0.0000000000000000e+00  7.6125819001805284e-01 4.2765722935181677e-01 0.0000000000000000e+00  2.2840056272679403e+00 -2.0476247440919654e-01 0.0000000000000000e+00  1.636361843825949