<?xml version="1.0"?>
<VTKFile type="UnstructuredGrid"  version="0.1"  >
<UnstructuredGrid>
<Piece  NumberOfPoints="2868" NumberOfCells="5400">
<Points>
<DataArray  type="Float64"  NumberOfComponents="3"  format="ascii">0.534923 0.326073 0  0.510642 0.314196 0  0.466125 0.293082 0  0.436448 0.281205 0  0.409468 0.275927 0  0.368998 0.270648 0  0.35281 0.275927 0  0.381139 0.302319 0  0.405421 0.326073 0  0.410817 0.33531 0  0.408119 0.349826 0  0.400025 0.357744 0  0.375743 0.368301 0  0.329878 0.392055 0  0.297502 0.432963 0  0.282663 0.476511 0  0.285361 0.524018 0  0.298851 0.572845 0  0.317737 0.6045160000000001 0  0.337972 0.6361869999999999 0  0.360904 0.674457 0  0.368998 0.69953 0  0.359555 0.7219640000000001 0  0.360904 0.757594 0  0.370347 0.766831 0  0.381139 0.762872 0  0.390582 0.741758 0  0.404072 0.720644 0  0.424307 0.707448 0  0.447239 0.702169 0  0.480964 0.704808 0  0.479615 0.6889729999999999 0  0.468823 0.675776 0  0.447239 0.6691780000000001 0  0.428354 0.6691780000000001 0  0.410817 0.6639 0  0.404072 0.653343 0  0.395978 0.628269 0  0.387884 0.59132 0  0.389233 0.576804 0  0.397327 0.557009 0  0.410817 0.547772 0  0.424307 0.546452 0  0.437797 0.55305 0  0.44589 0.5662469999999999 0  0.441843 0.582082 0  0.439145 0.5979179999999999 0  0.449937 0.609795 0  0.468823 0.603196 0  0.479615 0.59 0  0.489058 0.570205 0  0.494454 0.546452 0  0.505246 0.522699 0  0.522783 0.509502 0  0.55246 0.494986 0  0.586185 0.484429 0  0.615863 0.48047 0  0.64554 0.473872 0  0.6671240000000001 0.461995 0  0.683312 0.451438 0  0.696802 0.435603 0  0.703547 0.417128 0  0.7116400000000001 0.393374 0  0.7183850000000001 0.37226 0  0.7251300000000001 0.364342 0  0.739969 0.353785 0  0.7453650000000001 0.344548 0  0.7453650000000001 0.327393 0  0.737271 0.318155 0  0.7183850000000001 0.316835 0  0.7008490000000001 0.319475 0  0.677916 0.318155 0  0.650936 0.316835 0  0.610467 0.318155 0  0.57944 0.324753 0  0.559205 0.328712 0  0.5389699999999999 0.326073 0  1 1 0  1 0 0  0 0 0  0 1 0  0.532238 0.32476 0  0.528748 0.323052 0  0.52421 0.320833 0  0.518311 0.317947 0  0.503447 0.310783 0  0.494093 0.306347 0  0.481933 0.30058 0  0.452151 0.28749 0  0.392327 0.273691 0  0.379141 0.271971 0  0.360474 0.283066 0  0.369797 0.291752 0  0.391424 0.31238 0  0.399335 0.32012 0  0.40958 0.341964 0  0.393939 0.36039 0  0.386028 0.36383 0  0.364248 0.374254 0  0.349304 0.381994 0  0.315801 0.409841 0  0.292986 0.551616 0  0.350934 0.657818 0  0.360127 0.737055 0  0.360566 0.748664 0  0.385245 0.753692 0  0.396447 0.732578 0  0.466301 0.703661 0  0.459439 0.672908 0  0.418442 0.666195 0  0.400553 0.642441 0  0.39255 0.612619 0  0.389913 0.60058 0  0.392752 0.568197 0  0.444131 0.573132 0  0.458149 0.606926 0  0.5005540000000001 0.533026 0  0.571522 0.489019 0  0.632637 0.476741 0  0.689177 0.444553 0  0.708121 0.403702 0  0.715453 0.38144 0  0.732406 0.359166 0  0.7453650000000001 0.337089 0  0.72906 0.317581 0  0.629879 0.317522 0  0.59293 0.321884 0  0.568003 0.326991 0  0.55202 0.327775 0  0.546493 0.327054 0  0.542241 0.326499 0  1 0.9 0  1 0.8 0  1 0.7 0  1 0.6 0  1 0.5 0  1 0.4 0  1 0.3 0  1 0.2 0  1 0.1 0  0.9 0 0  0.8 0 0  0.7 0 0  0.6 0 0  0.5 0 0  0.4 0 0  0.3 0 0  0.2 0 0  0.1 0 0  0.1 1 0  0.2 1 0  0.3 1 0  0.4 1 0  0.5 1 0  0.6 1 0  0.7 1 0  0.8 1 0  0.9 1 0  0 0.1 0  0 0.2 0  0 0.3 0  0 0.4 0  0 0.5 0  0 0.6 0  0 0.7 0  0 0.8 0  0 0.9 0  0.535686 0.5031910000000001 0  0.753987 0.733359 0  0.167145 0.741436 0  0.173378 0.257204 0  0.733497 0.159862 0  0.554096 0.15788 0  0.849187 0.479053 0  0.488793 0.838452 0  0.138507 0.5592 0  0.30686 0.154944 0  0.348904 0.890523 0  0.058006 0.065099 0  0.06984899999999999 0.937917 0  0.93633 0.939704 0  0.934625 0.053613 0  0.343397 0.333452 0  0.473272 0.639943 0  0.433266 0.638072 0  0.415174 0.58269 0  0.533435 0.545042 0  0.390848 0.340652 0  0.53655 0.320242 0  0.127966 0.393775 0  0.83861 0.850455 0  0.635242 0.8551299999999999 0  0.852158 0.633441 0  0.653427 0.626848 0  0.861226 0.24292 0  0.166128 0.12976 0  0.216875 0.8698709999999999 0  0.458305 0.11179 0  0.84446 0.101633 0  0.202024 0.642528 0  0.644825 0.115855 0  0.671342 0.218358 0  0.251354 0.286186 0  0.262388 0.75153 0  0.063044 0.751571 0  0.068189 0.242962 0  0.435781 0.9053949999999999 0  0.934144 0.451133 0  0.568393 0.237622 0  0.814984 0.395506 0  0.752951 0.517227 0  0.456254 0.780699 0  0.073352 0.531116 0  0.337731 0.206071 0  0.363213 0.960371 0  0.330742 0.363592 0  0.516613 0.55705 0  0.369057 0.332992 0  0.500926 0.617309 0  0.498004 0.665534 0  0.412142 0.61178 0  0.454233 0.6366039999999999 0  0.422782 0.567496 0  0.541193 0.5214800000000001 0  0.439761 0.65557 0  0.5163 0.533672 0  0.414775 0.64562 0  0.40073 0.576135 0  0.430362 0.5880339999999999 0  0.385432 0.351492 0  0.400298 0.335397 0  0.398325 0.348194 0  0.528702 0.314885 0  0.540814 0.322334 0  0.534477 0.322953 0  0.619095 0.743583 0  0.885162 0.737972 0  0.08076 0.668849 0  0.90734 0.36634 0  0.09468699999999999 0.868937 0  0.759838 0.912152 0  0.901518 0.540898 0  0.747285 0.607479 0  0.229182 0.071641 0  0.06915399999999999 0.450091 0  0.244775 0.203309 0  0.076534 0.331755 0  0.897847 0.167826 0  0.578909 0.911415 0  0.07713299999999999 0.146341 0  0.477215 0.203448 0  0.922631 0.869341 0  0.517415 0.074785 0  0.297026 0.827793 0  0.7832710000000001 0.246505 0  0.74519 0.061079 0  0.36033 0.069068 0  0.210313 0.475228 0  0.859426 0.928758 0  0.5745479999999999 0.609182 0  0.243069 0.383398 0  0.283099 0.934598 0  0.417416 0.843141 0  0.643942 0.553164 0  0.112687 0.079336 0  0.281357 0.658386 0  0.765043 0.436177 0  0.611361 0.198486 0  0.234496 0.58911 0  0.206479 0.702638 0  0.679608 0.155818 0  0.62682 0.259978 0  0.690538 0.264164 0  0.448938 0.956308 0  0.808154 0.328403 0  0.379583 0.91913 0  0.308083 0.297769 0  0.312358 0.730249 0  0.563101 0.278576 0  0.435597 0.746198 0  0.385475 0.225229 0  0.572248 0.518034 0  0.357864 0.35422 0  0.497647 0.641694 0  0.458101 0.655768 0  0.360474 0.310727 0  0.467038 0.620139 0  0.47798 0.659909 0  0.41102 0.628072 0  0.48324 0.609015 0  0.427544 0.617941 0  0.388633 0.328253 0  0.405336 0.599404 0  0.408351 0.565178 0  0.42395 0.600985 0  0.431562 0.576523 0  0.424905 0.6551979999999999 0  0.398064 0.58782 0  0.427739 0.557934 0  0.5192909999999999 0.303443 0  0.53142 0.320293 0  0.5449000000000001 0.323642 0  0.537166 0.323513 0  0.153974 0.920841 0  0.9181859999999999 0.67343 0  0.759946 0.820588 0  0.5375259999999999 0.783091 0  0.816532 0.545843 0  0.813991 0.178083 0  0.836774 0.702023 0  0.149815 0.318856 0  0.662287 0.923338 0  0.680146 0.791192 0  0.708961 0.663172 0  0.9372779999999999 0.287318 0  0.574622 0.6881660000000001 0  0.5894740000000001 0.076262 0  0.502822 0.926683 0  0.222269 0.811068 0  0.380457 0.164786 0  0.15321 0.684154 0  0.458063 0.051413 0  0.161702 0.056026 0  0.199351 0.198818 0  0.298946 0.09553200000000001 0  0.902465 0.795949 0  0.121139 0.791477 0  0.906269 0.112287 0  0.056109 0.822332 0  0.512172 0.13237 0  0.940964 0.741805 0  0.888887 0.408777 0  0.354543 0.825964 0  0.808736 0.068638 0  0.068507 0.394071 0  0.719105 0.563843 0  0.247287 0.149664 0  0.293062 0.237128 0  0.240524 0.434997 0  0.141255 0.623289 0  0.945202 0.160621 0  0.502914 0.247629 0  0.144669 0.480811 0  0.665025 0.060817 0  0.728047 0.224344 0  0.861995 0.313312 0  0.200068 0.534235 0  0.253262 0.965623 0  0.893804 0.49307 0  0.604391 0.572456 0  0.947088 0.345347 0  0.439372 0.227307 0  0.629847 0.159823 0  0.273405 0.880181 0  0.302744 0.776823 0  0.781502 0.295365 0  0.275342 0.349602 0  0.7283849999999999 0.472798 0  0.229136 0.246478 0  0.807794 0.480346 0  0.709476 0.112786 0  0.275506 0.694991 0  0.771674 0.394419 0  0.449715 0.861802 0  0.419159 0.799696 0  0.674851 0.503139 0  0.280443 0.61016 0  0.572443 0.192538 0  0.393113 0.87525 0  0.405555 0.948428 0  0.330942 0.934103 0  0.540509 0.597101 0  0.312763 0.6689310000000001 0  0.254368 0.540179 0  0.595265 0.25915 0  0.606679 0.234099 0  0.657131 0.279138 0  0.722458 0.279478 0  0.333 0.308056 0  0.351529 0.246142 0  0.455714 0.7257940000000001 0  0.585239 0.295143 0  0.340062 0.72492 0  0.545593 0.293773 0  0.555449 0.545426 0  0.414311 0.737314 0  0.590854 0.502323 0  0.350507 0.368444 0  0.484423 0.625665 0  0.483899 0.674542 0  0.378137 0.317274 0  0.446416 0.646404 0  0.373532 0.347654 0  0.446876 0.619769 0  0.466106 0.666068 0  0.437545 0.609254 0  0.434988 0.565726 0  0.41462 0.656829 0  0.418803 0.556961 0  0.398425 0.327446 0  0.517803 0.310421 0  0.549516 0.322918 0  0.57701 0.842889 0  0.8291269999999999 0.773906 0  0.643235 0.684732 0  0.134281 0.207734 0  0.865997 0.055966 0  0.680959 0.723345 0  0.165229 0.8415550000000001 0  0.54558 0.959672 0  0.783726 0.656439 0  0.913315 0.595533 0  0.699439 0.860667 0  0.785839 0.125076 0  0.551673 0.037713 0  0.9200970000000001 0.223214 0  0.206406 0.299726 0  0.087064 0.596401 0  0.935644 0.394252 0  0.964557 0.252582 0  0.230124 0.928346 0  0.120579 0.271764 0  0.8572149999999999 0.524082 0  0.7670979999999999 0.5551469999999999 0  0.936094 0.507131 0  0.804064 0.59585 0  0.700565 0.608273 0  0.429773 0.174231 0  0.117746 0.727333 0  0.5389620000000001 0.730231 0  0.862761 0.359173 0  0.821444 0.284046 0  0.193552 0.35818 0  0.234923 0.505555 0  0.193209 0.421217 0  0.220144 0.755896 0  0.594015 0.131642 0  0.283813 0.195855 0  0.517519 0.213961 0  0.553509 0.639116 0  0.280391 0.378018 0  0.852183 0.436817 0  0.746983 0.197173 0  0.821806 0.221318 0  0.449853 0.828453 0  0.883758 0.453926 0  0.183484 0.589542 0  0.348384 0.129314 0  0.255254 0.838525 0  0.504849 0.798516 0  0.320344 0.863432 0  0.611669 0.525425 0  0.265864 0.804962 0  0.72056 0.521442 0  0.613372 0.6101220000000001 0  0.481262 0.881068 0  0.655778 0.191988 0  0.701921 0.196918 0  0.5658260000000001 0.5731810000000001 0  0.46914 0.240927 0  0.343219 0.173284 0  0.888786 0.278502 0  0.244113 0.6750930000000001 0  0.739546 0.417914 0  0.784023 0.355942 0  0.326805 0.265549 0  0.248616 0.6
[...]
<PointData  Vectors="f_21"> 
<DataArray  type="Float64"  Name="f_21"  NumberOfComponents="3" format="ascii">1.0745283888523723e-02 -3.0934534983330843e-03 0.0000000000000000e+00  7.1241710152954701e-03 -1.2731311252863488e-03 0.0000000000000000e+00  2.5243407757967492e-03 -2.5351979465577560e-04 0.0000000000000000e+00  1.1148908258297441e-03 -1.2202116552713878e-04 0.0000000000000000e+00  4.8442188429321099e-04 -6.7424996734259768e-05 0.0000000000000000e+00  1.1166162268103195e-04 -1.7413604574930985e-05 0.0000000000000000e+00  3.5502163852553277e-05 -7.1255838035945695e-06 0.0000000000000000e+00  2.1037082808862487e-06 1.8510125216311883e-06 0.0000000000000000e+00  3.7557270382637453e-07 5.3854397052689944e-07 0.0000000000000000e+00  2.4330938475405056e-07 5.2435782989563806e-07 0.0000000000000000e+00  5.5227369889108737e-08 4.5600882745141361e-07 0.0000000000000000e+00  -3.4989925216871209e-08 3.5620563088950875e-07 0.0000000000000000e+00  -1.3478357366934000e-07 9.4693822828695363e-08 0.0000000000000000e+00  -3.2270831634385757e-08 -1.1999311987315157e-07 0.0000000000000000e+00  3.0923132402496055e-09 -2.3580831117546806e-08 0.0000000000000000e+00  1.6130232746833964e-10 -2.7348366805589997e-09 0.0000000000000000e+00  -5.7676555831767384e-11 9.3052226064045684e-11 0.0000000000000000e+00  5.6029392867768465e-10 3.3910533381180580e-09 0.0000000000000000e+00  1.3360816694313931e-09 1.6138539764091076e-08 0.0000000000000000e+00  -2.1128854141416281e-09 5.9125230326262356e-08 0.0000000000000000e+00  -7.4149238957447782e-08 1.6736603611218204e-07 0.0000000000000000e+00  -6.6285886277485239e-08 1.0749130240324325e-07 0.0000000000000000e+00  4.7720127417861630e-07 1.2938177690160013e-07 0.0000000000000000e+00  2.1912395796799008e-05 6.7001073727250345e-07 0.0000000000000000e+00  8.1634489584228150e-05 -8.2852747152811336e-06 0.0000000000000000e+00  1.6309008688347135e-04 -1.1321972440266241e-05 0.0000000000000000e+00  3.1857017008860320e-04 -2.5505558503605896e-05 0.0000000000000000e+00  4.9777294152159805e-04 -3.1717365785808600e-06 0.0000000000000000e+00  7.6447616023953674e-04 1.0745160635018832e-04 0.0000000000000000e+00  1.1043064788496617e-03 2.7366551327993172e-04 0.0000000000000000e+00  2.7620140702671664e-03 -4.0060754244437337e-06 0.0000000000000000e+00  3.4625984752693602e-03 -2.3156683575229346e-04 0.0000000000000000e+00  2.4931503418672901e-03 -2.2707868908249435e-04 0.0000000000000000e+00  1.3598970486771453e-03 -2.2397168029951735e-04 0.0000000000000000e+00  9.2854881374917965e-04 -1.4659032475995300e-04 0.0000000000000000e+00  7.5775056141741631e-04 7.5989357034595821e-06 0.0000000000000000e+00  6.2829219448248016e-04 6.2932474746007561e-05 0.0000000000000000e+00  4.1149941342959450e-04 1.1856986572016402e-04 0.0000000000000000e+00  1.3404585500767933e-04 1.3988352579080295e-04 0.0000000000000000e+00  6.5296373910739305e-05 1.1655923840654004e-04 0.0000000000000000e+00  5.3947188637189138e-06 7.7509279722782188e-05 0.0000000000000000e+00  -1.4502746550572798e-05 4.3922044693522264e-05 0.0000000000000000e+00  -1.7343808826220599e-05 1.8271622056916480e-05 0.0000000000000000e+00  -8.4346576186131859e-06 -8.1341101684842244e-06 0.0000000000000000e+00  1.9679672719247118e-05 -3.4926364799711412e-05 0.0000000000000000e+00  8.3493632118854569e-05 -4.1067117995318043e-05 0.0000000000000000e+00  3.1113195698382012e-04 -1.6220669916022175e-05 0.0000000000000000e+00  1.1591671275624938e-03 -6.7079045074725324e-05 0.0000000000000000e+00  2.6854452684111460e-03 -1.3787949170891400e-04 0.0000000000000000e+00  4.1327284840528295e-03 -2.6482859741051292e-04 0.0000000000000000e+00  5.7516391580305654e-03 -5.8495246977290560e-04 0.0000000000000000e+00  7.4922872480626176e-03 -1.0980433500065848e-03 0.0000000000000000e+00  1.0449424694315793e-02 -1.1227474547992394e-03 0.0000000000000000e+00  1.3477239795443576e-02 -4.1613399138178112e-05 0.0000000000000000e+00  2.0691423728124797e-02 2.1243668105147681e-03 0.0000000000000000e+00  3.1997314336247647e-02 4.9571811269255965e-03 0.0000000000000000e+00  4.5659630170034320e-02 6.2044058154548387e-03 0.0000000000000000e+00  6.6413528759275156e-02 4.6421863184399918e-03 0.0000000000000000e+00  8.7648270925460292e-02 4.0920472648047525e-03 0.0000000000000000e+00  1.0427557703999679e-01 2.3315232710473216e-03 0.0000000000000000e+00  1.2289849756188745e-01 3.7732168248242801e-04 0.0000000000000000e+00  1.3882857584001729e-01 -8.3231803029104200e-04 0.0000000000000000e+00  1.5148878792109652e-01 1.1036703714044822e-03 0.0000000000000000e+00  1.5720308208818609e-01 3.2596414590727383e-03 0.0000000000000000e+00  1.5842423436646594e-01 4.6520015742915035e-03 0.0000000000000000e+00  1.5859078192311304e-01 6.0282776335379750e-03 0.0000000000000000e+00  1.5549471278029486e-01 5.0941028405187333e-03 0.0000000000000000e+00  1.3814683635225986e-01 1.7507085244096183e-03 0.0000000000000000e+00  1.1728762601962746e-01 -1.7916391347623294e-03 0.0000000000000000e+00  9.2281690321419280e-02 -1.0482158736281612e-02 0.0000000000000000e+00  7.8648929397189968e-02 -1.5051895934990558e-02 0.0000000000000000e+00  6.6161224861593010e-02 -1.5871620066974113e-02 0.0000000000000000e+00  5.0760855601053929e-02 -1.3956718291072021e-02 0.0000000000000000e+00  2.9184871178829255e-02 -9.3213138707172027e-03 0.0000000000000000e+00  1.7377394966667174e-02 -6.8651664914001148e-03 0.0000000000000000e+00  1.3737855530434906e-02 -5.3559306948875113e-03 0.0000000000000000e+00  1.1054945901642575e-02 -3.4292553210159738e-03 0.0000000000000000e+00  3.3989500106768938e-01 -9.5267677141100043e-02 0.0000000000000000e+00  3.3993976756684113e-01 9.5552018379734524e-02 0.0000000000000000e+00  0.0000000000000000e+00 0.0000000000000000e+00 0.0000000000000000e+00  0.0000000000000000e+00 0.0000000000000000e+00 0.0000000000000000e+00  1.0418718511415976e-02 -2.8118389456833043e-03 0.0000000000000000e+00  9.9023656129986030e-03 -2.4834267031064654e-03 0.0000000000000000e+00  9.1817485739453999e-03 -2.1006905851895636e-03 0.0000000000000000e+00  8.2687932943243756e-03 -1.6905975952946968e-03 0.0000000000000000e+00  6.1611125499140976e-03 -9.8918336876471563e-04 0.0000000000000000e+00  5.0155403182038849e-03 -6.8896738455443221e-04 0.0000000000000000e+00  3.8258606179702994e-03 -4.5332681520136327e-04 0.0000000000000000e+00  1.7605398884204858e-03 -1.7644803860163434e-04 0.0000000000000000e+00  2.9128734738269405e-04 -5.3385401477221698e-05 0.0000000000000000e+00  1.8358840214153800e-04 -2.9870014446705605e-05 0.0000000000000000e+00  1.4483008012534323e-05 2.7139989066019933e-06 0.0000000000000000e+00  5.5341382997003050e-06 3.0787265997330247e-06 0.0000000000000000e+00  8.5443562874522762e-07 9.5868687545965679e-07 0.0000000000000000e+00  5.1557735096571696e-07 6.3747531319315809e-07 0.0000000000000000e+00  1.5765639391363270e-07 4.9158573628946632e-07 0.0000000000000000e+00  -6.5629100214767497e-08 2.8981697467198805e-07 0.0000000000000000e+00  -1.0397358418616980e-07 2.1077721483937970e-07 0.0000000000000000e+00  -1.3249274881406034e-07 -2.9218496907411606e-08 0.0000000000000000e+00  -9.2686440049499502e-08 -1.0659864530707959e-07 0.0000000000000000e+00  -2.0884783497027854e-09 -6.9091335630720126e-08 0.0000000000000000e+00  9.0482029949655852e-11 1.1449403038080745e-09 0.0000000000000000e+00  -2.6767393955098238e-08 1.2085662558258860e-07 0.0000000000000000e+00  2.4872753551113687e-06 -2.2838129428899329e-07 0.0000000000000000e+00  8.1975713997643924e-06 -9.1867372097505007e-07 0.0000000000000000e+00  2.4180881147340845e-04 -2.1381563811370455e-05 0.0000000000000000e+00  3.8631302872753386e-04 -2.0206152501668428e-05 0.0000000000000000e+00  1.6854380085733354e-03 3.1000721082282724e-04 0.0000000000000000e+00  1.9226488110120094e-03 -2.6683313815913107e-04 0.0000000000000000e+00  8.1284831762475486e-04 -6.3924057713994858e-05 0.0000000000000000e+00  5.2406322102249920e-04 8.7175582780497056e-05 0.0000000000000000e+00  2.7781586007784108e-04 1.3702712752963032e-04 0.0000000000000000e+00  1.9269452819201027e-04 1.4019076644706315e-04 0.0000000000000000e+00  3.5327187679753915e-05 9.6600170170936712e-05 0.0000000000000000e+00  4.0421509668482268e-05 -3.5605492793986988e-05 0.0000000000000000e+00  1.8096921940353849e-03 -8.4678173525194815e-05 0.0000000000000000e+00  9.0456758083394054e-03 -1.1706427161351108e-03 0.0000000000000000e+00  2.6610099467432820e-02 3.6823366900100591e-03 0.0000000000000000e+00  5.6547959033248392e-02 5.8692411154367772e-03 0.0000000000000000e+00  1.1290536175011266e-01 1.1077589975156555e-03 0.0000000000000000e+00  1.4694397152454561e-01 6.2053439875567635e-05 0.0000000000000000e+00  1.5523643662355716e-01 2.3642131680206829e-03 0.0000000000000000e+00  1.5872755217598530e-01 5.6841750655703136e-03 0.0000000000000000e+00  1.5028583268096946e-01 5.0341200422800323e-03 0.0000000000000000e+00  1.0451893835464848e-01 -6.6953744813557387e-03 0.0000000000000000e+00  3.9151409086835849e-02 -1.1820796632365745e-02 0.0000000000000000e+00  2.1480027605436321e-02 -7.8727008821600341e-03 0.0000000000000000e+00  1.4906680689550112e-02 -6.0198263007500662e-03 0.0000000000000000e+00  1.2833097115365674e-02 -4.6439491851287384e-03 0.0000000000000000e+00  1.2051834028141998e-02 -4.0962171219135575e-03 0.0000000000000000e+00  1.1470563578719981e-02 -3.7080307811107991e-03 0.0000000000000000e+00  3.2091151526800005e-01 -6.3102258852999027e-02 0.0000000000000000e+00  3.0932022957124522e-01 -3.1224151271361231e-02 0.0000000000000000e+00  3.0795136597525641e-01 -1.0865277649332913e-02 0.0000000000000000e+00  3.0755262520273408e-01 -2.4592345423802807e-03 0.0000000000000000e+00  3.0733689798283209e-01 2.5295960068677623e-04 0.0000000000000000e+00  3.0855529082773731e-01 2.6376882775676763e-03 0.0000000000000000e+00  3.0915153644966092e-01 1.0438935546675309e-02 0.0000000000000000e+00  3.0972585767868310e-01 3.0874989783304236e-02 0.0000000000000000e+00  3.2065397134117984e-01 6.3269416967943415e-02 0.0000000000000000e+00  2.4763361849950449e-01 7.6819624262257913e-02 0.0000000000000000e+00  1.5677836811017623e-01 5.2307423155295907e-02 0.0000000000000000e+00  7.8931694658590207e-02 2.5883100645126139e-02 0.0000000000000000e+00  2.5698684327259892e-02 8.3830610366749762e-03 0.0000000000000000e+00  3.0476851886113757e-03 8.7847396013877106e-04 0.0000000000000000e+00  1.2581561545733900e-04 4.4411616533125468e-05 0.0000000000000000e+00  2.4830712275314009e-06 9.7151332720780714e-07 0.0000000000000000e+00  5.5603878947906081e-08 1.5053753646155353e-08 0.0000000000000000e+00  4.5178553122854482e-10 4.5838399234848208e-11 0.0000000000000000e+00  5.3051086915118203e-11 2.0393741064906023e-10 0.0000000000000000e+00  1.8020849770229248e-08 1.2980634217466951e-08 0.0000000000000000e+00  1.0818192952329774e-06 -9.6108714540800506e-08 0.0000000000000000e+00  9.0625731171597911e-05 -2.9906334611222148e-05 0.0000000000000000e+00  2.9011216200140154e-03 -8.5612704386667520e-04 0.0000000000000000e+00  2.5881526993743530e-02 -8.3156834393432986e-03 0.0000000000000000e+00  7.8884436114678685e-02 -2.6168043681263065e-02 0.0000000000000000e+00  1.5692100106876167e-01 -5.2491615096573296e-02 0.0000000000000000e+00  2.4762347973107043e-01 -7.6738283096358897e-02 0.0000000000000000e+00  0.0000000000000000e+00 0.0000000000000000e+00 0.0000000000000000e+00  0.0000000000000000e+00 0.0000000000000000e+00 0.0000000000000000e+00  0.0000000000000000e+00 0.0000000000000000e+00 0.0000000000000000e+00  0.0000000000000000e+00 0.0000000000000000e+00 0.0000000000000000e+00  0.0000000000000000e+00 0.0000000000000000e+00 0.0000000000000000e+00  0.0000000000000000e+00 0.0000000000000000e+00 0.0000000000000000e+00  0.0000000000000000e+00 0.0000000000000000e+00 0.0000000000000000e+00  0.0000000000000000e+00 0.0000000000000000e+00 0.0000000000000000e+00  0.0000000000000000e+00 0.0000000000000000e+00 0.0000000000000000e+00  1.6253411221463360e-02 8.0608350823418323e-04 0.0000000000000000e+00  1.0328049075870721e-01 -3.7454461784202126e-03 0.0000000000000000e+00  1.3329005379128542e-08 4.6276696965487898e-09 0.0000000000000000e+00  5.9542479132682135e-08 -1.0903697590124745e-08 0.0000000000000000e+00  8.5267768818842710e-02 6.6229752984945682e-03 0.0000000000000000e+00  1.0676760560123726e-02 2.8743908719077523e-04 0.0000000000000000e+00  1.8718389327938059e-01 4.0769434435020072e-03 0.0000000000000000e+00  2.4207230203332677e-03 -1.3955510886051143e-04 0.0000000000000000e+00  2.7516006114655699e-11 2.4489437675673991e-11 0.0000000000000000e+00  1.0178391211969632e-05 8.7558720510472461e-07 0.0000000000000000e+00  2.4185797303286977e-05 -3.6366561366392100e-06 0.0000000000000000e+00  2.1744815612660798e-10 5.5131374008502279e-11 0.0000000000000000e+00  1.2076358095977837e-10 1.4915777168246889e-11 0.0000000000000000e+00  2.6883302747731125e-01 -6.5045888065475607e-02 0.0000000000000000e+00  2.6848969616701457e-01 6.6868140950189905e-02 0.0000000000000000e+00  -1.0425607928050888e-08 -6.1935767975480245e-07 0.0000000000000000e+00  2.0273865304694240e-03 -1.4198314777668291e-04 0.0000000000000000e+00  7.8619611746522751e-04 -7.7092541015017223e-05 0.0000000000000000e+00  9.2773084741311842e-05 6.5017293156472084e-05 0.0000000000000000e+00  1.0069784367624127e-02 3.4295423419621675e-04 0.0000000000000000e+00  1.2102678848665919e-07 3.8142306994480088e-07 0.0000000000000000e+00  1.0147910618659989e-02 -3.0731124948142020e-03 0.0000000000000000e+00  6.8269562083407709e-10 -5.1273337698576296e-10 0.0000000000000000e+00  1.6817071550380386e-01 -2.3886581482966161e-02 0.0000000000000000e+00  3.4831812722264544e-02 -2.3204980746221204e-03 0.0000000000000000e+00  1.8394400653607038e-01 -2.2098692012545752e-03 0.0000000000000000e+00  4.6794959908293403e-02 4.2123316518099711e-04 0.0000000000000000e+00  1.9022369688593371e-01 9.2751295897407268e-03 0.0000000000000000e+00  2.9885538084725257e-08 5.4030057116526759e-09 0.0000000000000000e+00  1.6053672292981507e-07 -1.6443671786850816e-08 0.0000000000000000e+00  1.0534531789018729e-03 9.2616630618896792e-05 0.0000000000000000e+00  1.7752591980645965e-01 3.5089692627488581e-02 0.0000000000000000e+00  3.2207133842495141e-09 3.3467538954170983e-09 0.0000000000000000e+00  3.8024590390360595e-02 3.2274631654794841e-03 0.0000000000000000e+00  5.3902976504529646e-02 -7.6556782744896892e-04 0.0000000000000000e+00  8.3627813930901567e-07 -3.8094867334137433e-07 0.0000000000000000e+00  6.6612747610617145e-07 2.9191538349542334e-07 0.0000000000000000e+00  1.5284980837170848e-10 3.1547505826352241e-11 0.0000000000000000e+00  8.4239407142889398e-10 -1.0278055354066020e-10 0.0000000000000000e+00  4.3101660602334321e-04 -3.6537355393461702e-05 0.0000000000000000e+00  2.5371387326322620e-01 1.3247641609048571e-03 0.0000000000000000e+00  1.4159722797408467e-02 -1.0051272092615896e-03 0.0000000000000000e+00  1.7643312513316486e-01 4.7397173735932588e-03 0.0000000000000000e+00  1.1060040547999413e-01 6.6478254345045309e-03 0.0000000000000000e+00  1.1059724217551477e-03 -2.8478954255498205e-05 0.0000000000000000e+00  2.4080888172310630e-12 1.2183971071799641e-13 0.0000000000000000e+00  3.4069076342887898e-05 1.6025748405454582e-06 0.0000000000000000e+00  2.6564259808002571e-05 -7.3881962092318659e-06 0.0000000000000000e+00  -5.6221227112781524e-08 -2.3266400623848506e-07 0.0000000000000000e+00  7.5404418398084825e-03 2.6148624342105733e-05 0.0000000000000000e+00  2.9946689169315163e-08 2.7581039187376221e-07 0.0000000000000000e+00  4.0853855051668489e-03 5.0014408223791412e-05 0.0000000000000000e+00  3.7766705097193897e-03 -1.9848435428836651e-04 0.0000000000000000e+00  3.4135663835592602e-04 6.8354334185978996e-05 0.0000000000000000e+00  1.2836393689319597e-03 -1.4671267696276827e-04 0.0000000000000000e+00  2.5729476260022319e-05 2.8929168194862372e-05 0.0000000000000000e+00  1.3502256777276742e-02 7.8499479675918414e-04 0.0000000000000000e+00  1.0066799728018654e-03 -1.3438056541470805e-04 0.0000000000000000e+00  9.3735663575150764e-03 -2.5058510453346581e-04 0.0000000000000000e+00  6.0062333895758596e-04 -1.2106281101522192e-05 0.0000000000000000e+00  6.2311113992449303e-05 7.9417128970925304e-05 0.0000000000000000e+00  1.4290467447786208e-04 3.4503890421882072e-05 0.0000000000000000e+00  -4.1794800087997257e-09 2.4474481429283496e-07 0.0000000000000000e+00  2.3232598708687778e-07 4.5822817762191785e-07 0.0000000000000000e+00  6.3472469473169434e-08 3.6079293565966131e-07 0.0000000000000000e+00  8.7125483695235078e-03 -2.3364377952382991e-03 0.0000000000000000e+00  1.0834936387541494e-02 -3.4546770057894368e-03 0.0000000000000000e+00  1.0300820374167834e-02 -2.9891731568445932e-03 0.0000000000000000e+00  3.1330827799386694e-02 -5.8909166060208044e-04 0.0000000000000000e+00  2.0798195556433435e-01 -1.1357629213986040e-02 0.0000000000000000e+00  8.2774696568525887e-11 3.9924839025914668e-11 0.0000000000000000e+00  2.3469470477092386e-01 3.4358981697637436e-03 0.0000000000000000e+00  5.8249926569781209e-10 -1.0227456053839759e-10 0.0000000000000000e+00  1.0673997043349766e-01 -2.1615904515909390e-02 0.0000000000000000e+00  2.2597188443524582e-01 2.1911873147158824e-04 0.0000000000000000e+00  1.0149673761659546e-01 6.5034843185476920e-04 0.0000000000000000e+00  2.6260447853083160e-07 7.6906196308214521e-08 0.0000000000000000e+00  1.6269664942261617e-11 -1.3675744410580534e-11 0.0000000000000000e+00  1.3029619636792701e-06 -1.9432238480464519e-09 0.0000000000000000e+00  4.1634904834643971e-10 -1.5533315805778107e-10 0.0000000000000000e+00  2.1965714275813134e-01 2.8248979395873033e-02 0.0000000000000000e+00  1.5220905569870819e-02 -1.2418783878578225e-03 0.0000000000000000e+00  6.2105074034314433e-10 6.4151201541539115e-11 0.0000000000000000e+00  1.9776606611683501e-03 -1.5600793738852741e-05 0.0000000000000000e+00  2.4427086721642896e-01 -4.1639743803055310e-02 0.0000000000000000e+00  4.4367768425754130e-03 4.1682502031465269e-04 0.0000000000000000e+00  4.7490977643816315e-06 -2.3579342276066144e-07 0.0000000000000000e+00  1.2789939196703615e-01 1.8845533580925953e-03 0.0000000000000000e+00  9.9173794273514304e-02 2.3293571165433090e-02 0.0000000000000000e+00  3.9204590033865468e-05 8.5332439768202457e-06 0.0000000000000000e+00  3.5958291793664624e-10 -5.9892107364451636e-10 0.0000000000000000e+00  1.9576104497605099e-01 -4.6410489700369609e-02 0.0000000000000000e+00  1.6867772916898952e-02 1.4728320477438040e-04 0.0000000000000000e+00  2.2695012757861583e-08 -3.6755839391828309e-08 0.0000000000000000e+00  1.6174945734931380e-06 -3.3349770595848967e-07 0.0000000000000000e+00  2.9783192854048796e-04 -2.3086975839064931e-05 0.0000000000000000e+00  4.4011593492002489e-02 1.4542177337858930e-03 0.0000000000000000e+00  2.6121185977425267e-09 5.8136209107377551e-10 0.0000000000000000e+00  2.1726442462984977e-08 5.8655012632911861e-08 0.0000000000000000e+00  1.4343555623518392e-01 1.0252741596899213e-02 0.0000000000000000e+00  2.7138674655247937e-02 -1.0144507222924288e-04 0.0000000000000000e+00  7.0886377083170913e-10 1.2959916633403149e-09 0.0000000000000000e+00  2.4733205510148383e-08 1.6504816770287182e-08 0.0000000000000000e+00  5.4583773598829897e-02 3.2471394987255904e-03 0.0000000000000000e+00  3.4641954718835556e-02 -3.9198740804659155e-03 0.0000000000000000e+00  6.9098089782139757e-02 -5.2622914316622933e-03 0.0000000000000000e+00  5.7445983040128412e-04 -1.0750787817919751e-04 0.0000000000000000e+00  1.6660866569469579e-01 -2.3061950018229624e-03 0.0000000000000000e+00  6.2852081321044070e-05 -9.7477901263461646e-06 0.0000000000000000e+00  3.3102989578951413e-06 -2.8131796302853269e-06 0.0000000000000000e+00  1.4227446056641516e-06 1.5736579897084927e-06 0.0000000000000000e+00  1.3068942741473693e-02 -2.5023086908651272e-03 0.0000000000000000e+00  6.6162718934130698e-04 4.4799016567022415e-05 0.0000000000000000e+00  1.5909535938574316e-04 3.7298277843826563e-06 0.0000000000000000e+00  2.0673219432226567e-02 1.9707270013427664e-03 0.0000000000000000e+00