<?xml version="1.0"?>
<VTKFile type="UnstructuredGrid"  version="0.1"  >
<UnstructuredGrid>
<Piece  NumberOfPoints="2868" NumberOfCells="5400">
<Points>
<DataArray  type="Float64"  NumberOfComponents="3"  format="ascii">0.534923 0.326073 0  0.510642 0.314196 0  0.466125 0.293082 0  0.436448 0.281205 0  0.409468 0.275927 0  0.368998 0.270648 0  0.35281 0.275927 0  0.381139 0.302319 0  0.405421 0.326073 0  0.410817 0.33531 0  0.408119 0.349826 0  0.400025 0.357744 0  0.375743 0.368301 0  0.329878 0.392055 0  0.297502 0.432963 0  0.282663 0.476511 0  0.285361 0.524018 0  0.298851 0.572845 0  0.317737 0.6045160000000001 0  0.337972 0.6361869999999999 0  0.360904 0.674457 0  0.368998 0.69953 0  0.359555 0.7219640000000001 0  0.360904 0.757594 0  0.370347 0.766831 0  0.381139 0.762872 0  0.390582 0.741758 0  0.404072 0.720644 0  0.424307 0.707448 0  0.447239 0.702169 0  0.480964 0.704808 0  0.479615 0.6889729999999999 0  0.468823 0.675776 0  0.447239 0.6691780000000001 0  0.428354 0.6691780000000001 0  0.410817 0.6639 0  0.404072 0.653343 0  0.395978 0.628269 0  0.387884 0.59132 0  0.389233 0.576804 0  0.397327 0.557009 0  0.410817 0.547772 0  0.424307 0.546452 0  0.437797 0.55305 0  0.44589 0.5662469999999999 0  0.441843 0.582082 0  0.439145 0.5979179999999999 0  0.449937 0.609795 0  0.468823 0.603196 0  0.479615 0.59 0  0.489058 0.570205 0  0.494454 0.546452 0  0.505246 0.522699 0  0.522783 0.509502 0  0.55246 0.494986 0  0.586185 0.484429 0  0.615863 0.48047 0  0.64554 0.473872 0  0.6671240000000001 0.461995 0  0.683312 0.451438 0  0.696802 0.435603 0  0.703547 0.417128 0  0.7116400000000001 0.393374 0  0.7183850000000001 0.37226 0  0.7251300000000001 0.364342 0  0.739969 0.353785 0  0.7453650000000001 0.344548 0  0.7453650000000001 0.327393 0  0.737271 0.318155 0  0.7183850000000001 0.316835 0  0.7008490000000001 0.319475 0  0.677916 0.318155 0  0.650936 0.316835 0  0.610467 0.318155 0  0.57944 0.324753 0  0.559205 0.328712 0  0.5389699999999999 0.326073 0  1 1 0  1 0 0  0 0 0  0 1 0  0.532238 0.32476 0  0.528748 0.323052 0  0.52421 0.320833 0  0.518311 0.317947 0  0.503447 0.310783 0  0.494093 0.306347 0  0.481933 0.30058 0  0.452151 0.28749 0  0.392327 0.273691 0  0.379141 0.271971 0  0.360474 0.283066 0  0.369797 0.291752 0  0.391424 0.31238 0  0.399335 0.32012 0  0.40958 0.341964 0  0.393939 0.36039 0  0.386028 0.36383 0  0.364248 0.374254 0  0.349304 0.381994 0  0.315801 0.409841 0  0.292986 0.551616 0  0.350934 0.657818 0  0.360127 0.737055 0  0.360566 0.748664 0  0.385245 0.753692 0  0.396447 0.732578 0  0.466301 0.703661 0  0.459439 0.672908 0  0.418442 0.666195 0  0.400553 0.642441 0  0.39255 0.612619 0  0.389913 0.60058 0  0.392752 0.568197 0  0.444131 0.573132 0  0.458149 0.606926 0  0.5005540000000001 0.533026 0  0.571522 0.489019 0  0.632637 0.476741 0  0.689177 0.444553 0  0.708121 0.403702 0  0.715453 0.38144 0  0.732406 0.359166 0  0.7453650000000001 0.337089 0  0.72906 0.317581 0  0.629879 0.317522 0  0.59293 0.321884 0  0.568003 0.326991 0  0.55202 0.327775 0  0.546493 0.327054 0  0.542241 0.326499 0  1 0.9 0  1 0.8 0  1 0.7 0  1 0.6 0  1 0.5 0  1 0.4 0  1 0.3 0  1 0.2 0  1 0.1 0  0.9 0 0  0.8 0 0  0.7 0 0  0.6 0 0  0.5 0 0  0.4 0 0  0.3 0 0  0.2 0 0  0.1 0 0  0.1 1 0  0.2 1 0  0.3 1 0  0.4 1 0  0.5 1 0  0.6 1 0  0.7 1 0  0.8 1 0  0.9 1 0  0 0.1 0  0 0.2 0  0 0.3 0  0 0.4 0  0 0.5 0  0 0.6 0  0 0.7 0  0 0.8 0  0 0.9 0  0.535686 0.5031910000000001 0  0.753987 0.733359 0  0.167145 0.741436 0  0.173378 0.257204 0  0.733497 0.159862 0  0.554096 0.15788 0  0.849187 0.479053 0  0.488793 0.838452 0  0.138507 0.5592 0  0.30686 0.154944 0  0.348904 0.890523 0  0.058006 0.065099 0  0.06984899999999999 0.937917 0  0.93633 0.939704 0  0.934625 0.053613 0  0.343397 0.333452 0  0.473272 0.639943 0  0.433266 0.638072 0  0.415174 0.58269 0  0.533435 0.545042 0  0.390848 0.340652 0  0.53655 0.320242 0  0.127966 0.393775 0  0.83861 0.850455 0  0.635242 0.8551299999999999 0  0.852158 0.633441 0  0.653427 0.626848 0  0.861226 0.24292 0  0.166128 0.12976 0  0.216875 0.8698709999999999 0  0.458305 0.11179 0  0.84446 0.101633 0  0.202024 0.642528 0  0.644825 0.115855 0  0.671342 0.218358 0  0.251354 0.286186 0  0.262388 0.75153 0  0.063044 0.751571 0  0.068189 0.242962 0  0.435781 0.9053949999999999 0  0.934144 0.451133 0  0.568393 0.237622 0  0.814984 0.395506 0  0.752951 0.517227 0  0.456254 0.780699 0  0.073352 0.531116 0  0.337731 0.206071 0  0.363213 0.960371 0  0.330742 0.363592 0  0.516613 0.55705 0  0.369057 0.332992 0  0.500926 0.617309 0  0.498004 0.665534 0  0.412142 0.61178 0  0.454233 0.6366039999999999 0  0.422782 0.567496 0  0.541193 0.5214800000000001 0  0.439761 0.65557 0  0.5163 0.533672 0  0.414775 0.64562 0  0.40073 0.576135 0  0.430362 0.5880339999999999 0  0.385432 0.351492 0  0.400298 0.335397 0  0.398325 0.348194 0  0.528702 0.314885 0  0.540814 0.322334 0  0.534477 0.322953 0  0.619095 0.743583 0  0.885162 0.737972 0  0.08076 0.668849 0  0.90734 0.36634 0  0.09468699999999999 0.868937 0  0.759838 0.912152 0  0.901518 0.540898 0  0.747285 0.607479 0  0.229182 0.071641 0  0.06915399999999999 0.450091 0  0.244775 0.203309 0  0.076534 0.331755 0  0.897847 0.167826 0  0.578909 0.911415 0  0.07713299999999999 0.146341 0  0.477215 0.203448 0  0.922631 0.869341 0  0.517415 0.074785 0  0.297026 0.827793 0  0.7832710000000001 0.246505 0  0.74519 0.061079 0  0.36033 0.069068 0  0.210313 0.475228 0  0.859426 0.928758 0  0.5745479999999999 0.609182 0  0.243069 0.383398 0  0.283099 0.934598 0  0.417416 0.843141 0  0.643942 0.553164 0  0.112687 0.079336 0  0.281357 0.658386 0  0.765043 0.436177 0  0.611361 0.198486 0  0.234496 0.58911 0  0.206479 0.702638 0  0.679608 0.155818 0  0.62682 0.259978 0  0.690538 0.264164 0  0.448938 0.956308 0  0.808154 0.328403 0  0.379583 0.91913 0  0.308083 0.297769 0  0.312358 0.730249 0  0.563101 0.278576 0  0.435597 0.746198 0  0.385475 0.225229 0  0.572248 0.518034 0  0.357864 0.35422 0  0.497647 0.641694 0  0.458101 0.655768 0  0.360474 0.310727 0  0.467038 0.620139 0  0.47798 0.659909 0  0.41102 0.628072 0  0.48324 0.609015 0  0.427544 0.617941 0  0.388633 0.328253 0  0.405336 0.599404 0  0.408351 0.565178 0  0.42395 0.600985 0  0.431562 0.576523 0  0.424905 0.6551979999999999 0  0.398064 0.58782 0  0.427739 0.557934 0  0.5192909999999999 0.303443 0  0.53142 0.320293 0  0.5449000000000001 0.323642 0  0.537166 0.323513 0  0.153974 0.920841 0  0.9181859999999999 0.67343 0  0.759946 0.820588 0  0.5375259999999999 0.783091 0  0.816532 0.545843 0  0.813991 0.178083 0  0.836774 0.702023 0  0.149815 0.318856 0  0.662287 0.923338 0  0.680146 0.791192 0  0.708961 0.663172 0  0.9372779999999999 0.287318 0  0.574622 0.6881660000000001 0  0.5894740000000001 0.076262 0  0.502822 0.926683 0  0.222269 0.811068 0  0.380457 0.164786 0  0.15321 0.684154 0  0.458063 0.051413 0  0.161702 0.056026 0  0.199351 0.198818 0  0.298946 0.09553200000000001 0  0.902465 0.795949 0  0.121139 0.791477 0  0.906269 0.112287 0  0.056109 0.822332 0  0.512172 0.13237 0  0.940964 0.741805 0  0.888887 0.408777 0  0.354543 0.825964 0  0.808736 0.068638 0  0.068507 0.394071 0  0.719105 0.563843 0  0.247287 0.149664 0  0.293062 0.237128 0  0.240524 0.434997 0  0.141255 0.623289 0  0.945202 0.160621 0  0.502914 0.247629 0  0.144669 0.480811 0  0.665025 0.060817 0  0.728047 0.224344 0  0.861995 0.313312 0  0.200068 0.534235 0  0.253262 0.965623 0  0.893804 0.49307 0  0.604391 0.572456 0  0.947088 0.345347 0  0.439372 0.227307 0  0.629847 0.159823 0  0.273405 0.880181 0  0.302744 0.776823 0  0.781502 0.295365 0  0.275342 0.349602 0  0.7283849999999999 0.472798 0  0.229136 0.246478 0  0.807794 0.480346 0  0.709476 0.112786 0  0.275506 0.694991 0  0.771674 0.394419 0  0.449715 0.861802 0  0.419159 0.799696 0  0.674851 0.503139 0  0.280443 0.61016 0  0.572443 0.192538 0  0.393113 0.87525 0  0.405555 0.948428 0  0.330942 0.934103 0  0.540509 0.597101 0  0.312763 0.6689310000000001 0  0.254368 0.540179 0  0.595265 0.25915 0  0.606679 0.234099 0  0.657131 0.279138 0  0.722458 0.279478 0  0.333 0.308056 0  0.351529 0.246142 0  0.455714 0.7257940000000001 0  0.585239 0.295143 0  0.340062 0.72492 0  0.545593 0.293773 0  0.555449 0.545426 0  0.414311 0.737314 0  0.590854 0.502323 0  0.350507 0.368444 0  0.484423 0.625665 0  0.483899 0.674542 0  0.378137 0.317274 0  0.446416 0.646404 0  0.373532 0.347654 0  0.446876 0.619769 0  0.466106 0.666068 0  0.437545 0.609254 0  0.434988 0.565726 0  0.41462 0.656829 0  0.418803 0.556961 0  0.398425 0.327446 0  0.517803 0.310421 0  0.549516 0.322918 0  0.57701 0.842889 0  0.8291269999999999 0.773906 0  0.643235 0.684732 0  0.134281 0.207734 0  0.865997 0.055966 0  0.680959 0.723345 0  0.165229 0.8415550000000001 0  0.54558 0.959672 0  0.783726 0.656439 0  0.913315 0.595533 0  0.699439 0.860667 0  0.785839 0.125076 0  0.551673 0.037713 0  0.9200970000000001 0.223214 0  0.206406 0.299726 0  0.087064 0.596401 0  0.935644 0.394252 0  0.964557 0.252582 0  0.230124 0.928346 0  0.120579 0.271764 0  0.8572149999999999 0.524082 0  0.7670979999999999 0.5551469999999999 0  0.936094 0.507131 0  0.804064 0.59585 0  0.700565 0.608273 0  0.429773 0.174231 0  0.117746 0.727333 0  0.5389620000000001 0.730231 0  0.862761 0.359173 0  0.821444 0.284046 0  0.193552 0.35818 0  0.234923 0.505555 0  0.193209 0.421217 0  0.220144 0.755896 0  0.594015 0.131642 0  0.283813 0.195855 0  0.517519 0.213961 0  0.553509 0.639116 0  0.280391 0.378018 0  0.852183 0.436817 0  0.746983 0.197173 0  0.821806 0.221318 0  0.449853 0.828453 0  0.883758 0.453926 0  0.183484 0.589542 0  0.348384 0.129314 0  0.255254 0.838525 0  0.504849 0.798516 0  0.320344 0.863432 0  0.611669 0.525425 0  0.265864 0.804962 0  0.72056 0.521442 0  0.613372 0.6101220000000001 0  0.481262 0.881068 0  0.655778 0.191988 0  0.701921 0.196918 0  0.5658260000000001 0.5731810000000001 0  0.46914 0.240927 0  0.343219 0.173284 0  0.888786 0.278502 0  0.244113 0.6750930000000001 0  0.739546 0.417914 0  0.784023 0.355942 0  0.326805 0.265549 0  0.248616 0.6
[...]
<PointData  Vectors="f_21"> 
<DataArray  type="Float64"  Name="f_21"  NumberOfComponents="3" format="ascii">3.3122535138698250e-01 -5.1795742473520229e-02 0.0000000000000000e+00  3.2433342753828670e-01 -5.1427364783251363e-02 0.0000000000000000e+00  2.9098579236409705e-01 -4.1407423132844776e-02 0.0000000000000000e+00  2.5359389496273510e-01 -3.1293151989752195e-02 0.0000000000000000e+00  2.1523058111505255e-01 -2.3361154824539900e-02 0.0000000000000000e+00  1.4262701024128741e-01 -4.7824757445806198e-03 0.0000000000000000e+00  9.7799790465458031e-02 4.8096629368610330e-05 0.0000000000000000e+00  4.6943954457498681e-02 2.6058919917780050e-02 0.0000000000000000e+00  2.8753936786804921e-02 3.8094114707894942e-02 0.0000000000000000e+00  2.2742437336471806e-02 4.1353451164213448e-02 0.0000000000000000e+00  1.3340954395734010e-02 3.9440774730730578e-02 0.0000000000000000e+00  8.3302261860144795e-03 3.4095691509411719e-02 0.0000000000000000e+00  3.0055923136868019e-03 1.8060180315176529e-02 0.0000000000000000e+00  -1.0496964338570092e-04 -4.8018428585076857e-03 0.0000000000000000e+00  1.2007246703374836e-04 -6.9822746253846548e-03 0.0000000000000000e+00  1.4261577259022990e-04 -3.0223291930045518e-03 0.0000000000000000e+00  -1.0856821643590127e-04 8.7502866928595589e-04 0.0000000000000000e+00  -5.6734814955928159e-04 4.1411303825154453e-03 0.0000000000000000e+00  -1.3435608896213672e-03 4.4957589827665130e-03 0.0000000000000000e+00  -3.0218364299400920e-04 -2.7223683683763735e-04 0.0000000000000000e+00  9.6895147163023367e-03 -1.4259096215275284e-02 0.0000000000000000e+00  2.3301288332640009e-02 -2.2046445136121581e-02 0.0000000000000000e+00  3.9708942574184440e-02 -1.9828900498479001e-02 0.0000000000000000e+00  9.9886342083502458e-02 -2.4138450352676640e-02 0.0000000000000000e+00  1.5102010483928915e-01 -3.2456747193036539e-02 0.0000000000000000e+00  1.9438166831539860e-01 -3.0501352711378923e-02 0.0000000000000000e+00  2.5576921071555103e-01 -2.5144014379630993e-02 0.0000000000000000e+00  2.8234460341861145e-01 -1.1881482553353733e-02 0.0000000000000000e+00  2.9088304523964309e-01 -2.2116007693762187e-03 0.0000000000000000e+00  2.9470947058887104e-01 -1.8649707826498818e-03 0.0000000000000000e+00  3.2828592402813289e-01 -3.6963804000647596e-02 0.0000000000000000e+00  3.8380927160582812e-01 -5.8389152070074411e-02 0.0000000000000000e+00  4.2546974959438788e-01 -7.0630721236961264e-02 0.0000000000000000e+00  4.6588857672503825e-01 -5.5661266074279132e-02 0.0000000000000000e+00  4.9090342640862150e-01 -1.6449376815467119e-02 0.0000000000000000e+00  4.8898851101753860e-01 2.5983458360809317e-02 0.0000000000000000e+00  4.7084591030515544e-01 4.3889653012322984e-02 0.0000000000000000e+00  4.1757807819577342e-01 8.8386365765238450e-02 0.0000000000000000e+00  2.7163482390708477e-01 1.5801324461641186e-01 0.0000000000000000e+00  2.0080378954211953e-01 1.5758657539910711e-01 0.0000000000000000e+00  1.0195103094571237e-01 1.2252610449093482e-01 0.0000000000000000e+00  5.5789982676082324e-02 5.8080931362441246e-02 0.0000000000000000e+00  4.8791829570846615e-02 -7.0429778772122644e-03 0.0000000000000000e+00  8.0593596279703542e-02 -7.3067196836163112e-02 0.0000000000000000e+00  1.4679092837065041e-01 -1.1401000301229414e-01 0.0000000000000000e+00  2.3037926047607840e-01 -9.1599338826182819e-02 0.0000000000000000e+00  3.2114095901981971e-01 -6.3621649837477506e-02 0.0000000000000000e+00  4.0208496029399099e-01 -7.3638248270398499e-02 0.0000000000000000e+00  4.4808538723028229e-01 -7.8198535750514594e-02 0.0000000000000000e+00  4.8022920148339232e-01 -7.4415529088883298e-02 0.0000000000000000e+00  5.1204815098750600e-01 -6.8613990253356433e-02 0.0000000000000000e+00  5.4021023886651665e-01 -6.3558790602950971e-02 0.0000000000000000e+00  5.6241166331011061e-01 -5.2968644396233534e-02 0.0000000000000000e+00  5.7287209452364596e-01 -3.7891610838084309e-02 0.0000000000000000e+00  5.8260461632567184e-01 -1.5888801054286077e-02 0.0000000000000000e+00  5.8864909535169807e-01 4.6909061499033622e-03 0.0000000000000000e+00  5.9050527619288895e-01 1.8151007192543419e-02 0.0000000000000000e+00  5.9621968666001623e-01 2.6750587198937352e-02 0.0000000000000000e+00  6.0616178924340236e-01 3.1288484454741118e-02 0.0000000000000000e+00  6.1546663787998679e-01 3.4934859244722699e-02 0.0000000000000000e+00  6.2634344628203031e-01 4.0103019723148559e-02 0.0000000000000000e+00  6.3441364567620429e-01 4.5490525627677379e-02 0.0000000000000000e+00  6.3921353502298683e-01 5.3615260742402457e-02 0.0000000000000000e+00  6.3968593338704283e-01 5.9335667201413970e-02 0.0000000000000000e+00  6.3970722554006387e-01 6.1867739837066969e-02 0.0000000000000000e+00  6.3585505723009150e-01 7.0178254793344566e-02 0.0000000000000000e+00  6.2570204520765360e-01 7.5522722863780464e-02 0.0000000000000000e+00  5.8856147865661534e-01 8.0387517138197015e-02 0.0000000000000000e+00  5.4835808846285683e-01 7.9105081933694033e-02 0.0000000000000000e+00  4.9945918428157793e-01 6.1349115670885745e-02 0.0000000000000000e+00  4.7008233163142310e-01 4.5417057837007779e-02 0.0000000000000000e+00  4.4365957614382279e-01 3.0512603560845650e-02 0.0000000000000000e+00  4.1201643125434345e-01 1.3633313827428774e-02 0.0000000000000000e+00  3.6928859330521713e-01 -1.3484788343426665e-02 0.0000000000000000e+00  3.4312174916751498e-01 -3.4909450986929290e-02 0.0000000000000000e+00  3.3480039422973995e-01 -4.5454299708845500e-02 0.0000000000000000e+00  3.3170486795076121e-01 -5.1161540819655155e-02 0.0000000000000000e+00  7.5351952182443260e-01 -2.0680812410070820e-01 0.0000000000000000e+00  7.5728858021162171e-01 1.7004725324822359e-01 0.0000000000000000e+00  0.0000000000000000e+00 0.0000000000000000e+00 0.0000000000000000e+00  0.0000000000000000e+00 0.0000000000000000e+00 0.0000000000000000e+00  3.3101386323398341e-01 -5.1977755018798491e-02 0.0000000000000000e+00  3.3041777564272184e-01 -5.2107521687165079e-02 0.0000000000000000e+00  3.2930388558919377e-01 -5.2178276772334463e-02 0.0000000000000000e+00  3.2745855897022280e-01 -5.1990812375673906e-02 0.0000000000000000e+00  3.2075992239665230e-01 -5.0547590495916409e-02 0.0000000000000000e+00  3.1515649573368282e-01 -4.9047427638012259e-02 0.0000000000000000e+00  3.0629221263134476e-01 -4.6093567715246100e-02 0.0000000000000000e+00  2.7536528862443571e-01 -3.6688058554151415e-02 0.0000000000000000e+00  1.8965298288764360e-01 -1.7005585359731342e-02 0.0000000000000000e+00  1.6712837870844185e-01 -1.0917559808467380e-02 0.0000000000000000e+00  7.4583337139520978e-02 1.4102249588105822e-02 0.0000000000000000e+00  5.9074853863427250e-02 2.0633587627837610e-02 0.0000000000000000e+00  3.8274207846650019e-02 3.0600445816606082e-02 0.0000000000000000e+00  3.2738339929062665e-02 3.4642741048228384e-02 0.0000000000000000e+00  1.8432289641447754e-02 4.0481144295489088e-02 0.0000000000000000e+00  6.7425026271936998e-03 3.0059137030955103e-02 0.0000000000000000e+00  4.8896710534233412e-03 2.4819720488703508e-02 0.0000000000000000e+00  1.0511725276147507e-03 1.0807030204095661e-02 0.0000000000000000e+00  -2.5749561024587789e-05 2.7908546444700461e-03 0.0000000000000000e+00  -1.4736467822151813e-04 -7.4718334936139177e-03 0.0000000000000000e+00  -2.4743542183352666e-04 2.8226071991051603e-03 0.0000000000000000e+00  3.6500554617758391e-03 -7.3064699041261796e-03 0.0000000000000000e+00  5.6926174222674555e-02 -2.3701837480325928e-02 0.0000000000000000e+00  7.6234119736705991e-02 -2.6022787582343693e-02 0.0000000000000000e+00  2.3032770049095538e-01 -3.0817858887371683e-02 0.0000000000000000e+00  2.6976519783911795e-01 -1.8680763721747286e-02 0.0000000000000000e+00  3.0417501135554081e-01 -1.2186128107884173e-02 0.0000000000000000e+00  4.4502836148425151e-01 -6.7168132208707779e-02 0.0000000000000000e+00  4.9138391711641516e-01 7.4532160967531146e-03 0.0000000000000000e+00  4.5152019733984150e-01 5.9487993873593242e-02 0.0000000000000000e+00  3.6717596818678683e-01 1.1829110465120690e-01 0.0000000000000000e+00  3.1563314082282828e-01 1.4222290184675346e-01 0.0000000000000000e+00  1.5783124335090681e-01 1.4303320101875494e-01 0.0000000000000000e+00  1.8251965131559397e-01 -1.0490153118228070e-01 0.0000000000000000e+00  4.2427162894782539e-01 -7.7760674917109418e-02 0.0000000000000000e+00  5.5324413040853226e-01 -5.7525750854155414e-02 0.0000000000000000e+00  5.8622872771870460e-01 -3.6371495489163912e-03 0.0000000000000000e+00  5.9321386417337096e-01 2.3605501133495441e-02 0.0000000000000000e+00  6.2060373569661098e-01 3.6816273772426952e-02 0.0000000000000000e+00  6.3783656633331676e-01 5.0099618733467480e-02 0.0000000000000000e+00  6.3970718483071498e-01 5.7298289298081694e-02 0.0000000000000000e+00  6.3853214803054281e-01 6.5350875036852094e-02 0.0000000000000000e+00  6.1295870389364193e-01 8.0977855134775706e-02 0.0000000000000000e+00  5.2384030835821360e-01 7.0521577842207653e-02 0.0000000000000000e+00  3.8857762196965262e-01 -8.3533640141829411e-04 0.0000000000000000e+00  3.5232896824751669e-01 -2.6034395678920744e-02 0.0000000000000000e+00  3.3762916785299407e-01 -4.1397999609146086e-02 0.0000000000000000e+00  3.3389705493273852e-01 -4.7982591908415438e-02 0.0000000000000000e+00  3.3296472725116222e-01 -4.9507499738989123e-02 0.0000000000000000e+00  3.3224611553712269e-01 -5.0508997226903815e-02 0.0000000000000000e+00  7.3843848371047038e-01 -1.6834435982049953e-01 0.0000000000000000e+00  7.2778476212581811e-01 -1.1726034011179361e-01 0.0000000000000000e+00  7.2954787728073467e-01 -5.1532514937632251e-02 0.0000000000000000e+00  7.6216013710229125e-01 9.2149165194627351e-03 0.0000000000000000e+00  8.0946563066002142e-01 4.0893012710816523e-02 0.0000000000000000e+00  8.2233859961108036e-01 4.9309264101583671e-02 0.0000000000000000e+00  7.9694321301405513e-01 6.2991860257295904e-02 0.0000000000000000e+00  7.6534078552987361e-01 9.5011035098375649e-02 0.0000000000000000e+00  7.5318090335743171e-01 1.3552089336495912e-01 0.0000000000000000e+00  6.6576615307706966e-01 1.6656173373194444e-01 0.0000000000000000e+00  5.8011872321106484e-01 1.5466500900688371e-01 0.0000000000000000e+00  4.9302494545593739e-01 1.2939683841307456e-01 0.0000000000000000e+00  3.9772138875814755e-01 9.8956178841721407e-02 0.0000000000000000e+00  2.9697162195046467e-01 7.4749108061978903e-02 0.0000000000000000e+00  2.0248832538821851e-01 5.6790317635728720e-02 0.0000000000000000e+00  1.1803053706636221e-01 3.5806124818712141e-02 0.0000000000000000e+00  5.4988498756686481e-02 1.7121512013267459e-02 0.0000000000000000e+00  1.5115801138691270e-02 4.7131136848799242e-03 0.0000000000000000e+00  1.5433557986424677e-02 -4.8143730430882199e-03 0.0000000000000000e+00  5.6197495653445735e-02 -1.7027376168724476e-02 0.0000000000000000e+00  1.2479459842658379e-01 -3.8937721150420719e-02 0.0000000000000000e+00  2.1355970171996935e-01 -6.5923023308338588e-02 0.0000000000000000e+00  3.0636247363868302e-01 -9.2983956149643138e-02 0.0000000000000000e+00  3.9541296126732001e-01 -1.2263571366514364e-01 0.0000000000000000e+00  4.8162036197003499e-01 -1.4770254894749929e-01 0.0000000000000000e+00  5.6991516022816269e-01 -1.6829347855458893e-01 0.0000000000000000e+00  6.6095322742836271e-01 -1.8798821570292301e-01 0.0000000000000000e+00  0.0000000000000000e+00 0.0000000000000000e+00 0.0000000000000000e+00  0.0000000000000000e+00 0.0000000000000000e+00 0.0000000000000000e+00  0.0000000000000000e+00 0.0000000000000000e+00 0.0000000000000000e+00  0.0000000000000000e+00 0.0000000000000000e+00 0.0000000000000000e+00  0.0000000000000000e+00 0.0000000000000000e+00 0.0000000000000000e+00  0.0000000000000000e+00 0.0000000000000000e+00 0.0000000000000000e+00  0.0000000000000000e+00 0.0000000000000000e+00 0.0000000000000000e+00  0.0000000000000000e+00 0.0000000000000000e+00 0.0000000000000000e+00  0.0000000000000000e+00 0.0000000000000000e+00 0.0000000000000000e+00  5.7718956874182681e-01 -2.7904211432347007e-02 0.0000000000000000e+00  5.0233321818193644e-01 -4.6778810985233683e-02 0.0000000000000000e+00  1.6515825722165520e-02 8.5158598896039259e-03 0.0000000000000000e+00  2.3192026779193999e-02 -8.3942433703116832e-03 0.0000000000000000e+00  5.1482777717961814e-01 9.8573232680717507e-02 0.0000000000000000e+00  3.3923317592722091e-01 2.1840742419155807e-02 0.0000000000000000e+00  6.8506635187254583e-01 2.8914045681831257e-02 0.0000000000000000e+00  2.6437799079746704e-01 -3.5118208644848825e-02 0.0000000000000000e+00  8.7204525156141515e-04 8.4998080287253122e-04 0.0000000000000000e+00  1.0470226465896647e-01 6.2168349109452715e-03 0.0000000000000000e+00  1.4522972647730967e-01 -2.6919310958764139e-02 0.0000000000000000e+00  5.5889097283468043e-03 5.5475484206598440e-04 0.0000000000000000e+00  7.1621300963871449e-03 -7.5565028301280684e-04 0.0000000000000000e+00  6.8355041346334888e-01 -1.7471849040414278e-01 0.0000000000000000e+00  6.9356771042390297e-01 1.5142243292704829e-01 0.0000000000000000e+00  2.2286423021048000e-02 -1.3318799955691537e-04 0.0000000000000000e+00  4.3920524903721986e-01 -7.5497874901127970e-02 0.0000000000000000e+00  4.4199782058056541e-01 -3.4989892327443775e-02 0.0000000000000000e+00  2.3455977680398046e-01 3.7073376954211250e-02 0.0000000000000000e+00  5.4219430553339432e-01 -2.9035285718148899e-02 0.0000000000000000e+00  1.9126739881624798e-02 2.8547004888679901e-02 0.0000000000000000e+00  3.3169676091093137e-01 -5.1206759183437534e-02 0.0000000000000000e+00  2.9670311217566956e-03 -2.8038435423201101e-03 0.0000000000000000e+00  5.7799050953836828e-01 -1.2014478812205096e-01 0.0000000000000000e+00  3.9606377435060403e-01 -7.7531857690576578e-02 0.0000000000000000e+00  6.1679841650499567e-01 -2.4287438011623839e-02 0.0000000000000000e+00  4.9249325598543864e-01 1.0902497008616991e-02 0.0000000000000000e+00  6.4521558721822359e-01 9.8360552243355340e-02 0.0000000000000000e+00  2.9763170800526637e-02 -2.7791877978600952e-04 0.0000000000000000e+00  5.1596323271237310e-02 9.3829901078399530e-04 0.0000000000000000e+00  2.3900850162543499e-01 2.7434043219858303e-02 0.0000000000000000e+00  6.1062108028417050e-01 1.3408577085685716e-01 0.0000000000000000e+00  4.7695098272167776e-03 7.1030267992112798e-03 0.0000000000000000e+00  4.3109807515749954e-01 7.4278650543367714e-02 0.0000000000000000e+00  4.5940955484612145e-01 5.7749687877291317e-02 0.0000000000000000e+00  3.8634134043305027e-02 -1.7536378270785337e-02 0.0000000000000000e+00  4.4344123262306988e-02 1.5770359850438467e-02 0.0000000000000000e+00  3.7966572562018047e-03 1.4054645532714152e-03 0.0000000000000000e+00  5.3909994542234614e-03 -1.3328368178291555e-03 0.0000000000000000e+00  2.2159160447124254e-01 -4.6374036868635435e-02 0.0000000000000000e+00  7.6189033637080128e-01 3.8703542779888599e-02 0.0000000000000000e+00  3.5765975072708506e-01 -1.2146430599588941e-02 0.0000000000000000e+00  6.6978262758184304e-01 5.4460456442370193e-02 0.0000000000000000e+00  6.1033811896275658e-01 2.9331588190653228e-02 0.0000000000000000e+00  2.5416095616968043e-01 -1.5255906471712497e-02 0.0000000000000000e+00  3.5898997281657479e-04 9.8481565602793328e-05 0.0000000000000000e+00  1.2589493713903269e-01 2.8380392208741446e-03 0.0000000000000000e+00  1.6932919372539973e-01 -4.4791835904340251e-02 0.0000000000000000e+00  7.0828257732238314e-03 -4.8793627908906385e-03 0.0000000000000000e+00  5.2888110988792525e-01 -4.2161026118538412e-02 0.0000000000000000e+00  2.3329429654443106e-02 1.5342846837982139e-02 0.0000000000000000e+00  4.5346864183482338e-01 -5.5802684371449814e-02 0.0000000000000000e+00  4.1926165375113822e-01 -4.5996913051424150e-02 0.0000000000000000e+00  3.6991133486709998e-01 3.9929216153703831e-02 0.0000000000000000e+00  4.3783337971986463e-01 -7.3464190315122538e-02 0.0000000000000000e+00  1.5453072912108540e-01 1.2217431314689284e-03 0.0000000000000000e+00  5.6335435379682441e-01 -2.3585409451608894e-02 0.0000000000000000e+00  4.6070269679599912e-01 -4.6216258584789172e-02 0.0000000000000000e+00  5.5277153214433628e-01 -4.3156976204843822e-02 0.0000000000000000e+00  4.5707688491845883e-01 1.8206897559952240e-02 0.0000000000000000e+00  1.9874197084229134e-01 1.0361062609031738e-01 0.0000000000000000e+00  2.6490494830010092e-01 -3.0447979995759815e-02 0.0000000000000000e+00  1.2339873359466699e-02 2.4610379410935260e-02 0.0000000000000000e+00  2.2651486667727181e-02 3.4687109563641100e-02 0.0000000000000000e+00  1.4384307840435543e-02 3.3085882143620404e-02 0.0000000000000000e+00  3.2930765247453808e-01 -5.1617689413015699e-02 0.0000000000000000e+00  3.3253394557926746e-01 -5.0543315616741538e-02 0.0000000000000000e+00  3.3124698972362632e-01 -5.1714548734983878e-02 0.0000000000000000e+00  3.8920336635041164e-01 -2.4339776875112511e-02 0.0000000000000000e+00  6.1440139897570911e-01 -7.4277644214327837e-02 0.0000000000000000e+00  2.3350705596852091e-03 1.5238014486258229e-03 0.0000000000000000e+00  7.3261158152356498e-01 6.0324928752455917e-02 0.0000000000000000e+00  1.0604969153219356e-02 5.2049173959824949e-04 0.0000000000000000e+00  5.1689972598798595e-01 -1.2996019238056739e-01 0.0000000000000000e+00  7.0241373696434595e-01 8.8848625335990767e-03 0.0000000000000000e+00  5.5697663589426682e-01 5.0556469170852320e-03 0.0000000000000000e+00  6.0701751145168598e-02 9.3164384762950067e-03 0.0000000000000000e+00  6.1261776566574747e-04 -5.1701311427272657e-04 0.0000000000000000e+00  6.1082790815563899e-02 -7.3009630470471298e-03 0.0000000000000000e+00  3.2465663189031537e-03 -1.7074281365145952e-03 0.0000000000000000e+00  6.6339200135399545e-01 1.1892922652892748e-01 0.0000000000000000e+00  3.5531379100428545e-01 -8.5558409571988195e-02 0.0000000000000000e+00  7.9426632958892584e-03 -3.0501223455239423e-04 0.0000000000000000e+00  2.5953906802329180e-01 -1.0847147686782495e-02 0.0000000000000000e+00  6.5916207337064925e-01 -1.4386421160618804e-01 0.0000000000000000e+00  3.0225874099032402e-01 5.1045078191116665e-02 0.0000000000000000e+00  9.7152197627365405e-02 -2.3619501680312797e-03 0.0000000000000000e+00  5.6755960615944845e-01 9.4334253106267182e-02 0.0000000000000000e+00  5.2383992550252134e-01 1.2450236231478480e-01 0.0000000000000000e+00  1.5359106850301615e-01 3.0277489403039565e-02 0.0000000000000000e+00  1.0154204144250702e-03 -1.9150933452779949e-03 0.0000000000000000e+00  6.1044160149344240e-01 -1.5594761913964819e-01 0.0000000000000000e+00  4.8146552334243337e-01 -4.1186933077728867e-03 0.0000000000000000e+00  5.6686134216619895e-03 -1.0539140306488995e-02 0.0000000000000000e+00  9.9457773562204088e-02 -1.9817734462585848e-02 0.0000000000000000e+00  1.9990351259014164e-01 -3.0021215593756923e-02 0.0000000000000000e+00  5.4908191848974963e-01 2.2797500984237808e-02 0.0000000000000000e+00  1.5139810712961700e-02 1.2960252820074126e-03 0.0000000000000000e+00  5.6320041177134565e-03 1.0190002770701133e-02 0.0000000000000000e+00  6.4428899877407986e-01 4.9430211267381334e-02 0.0000000000000000e+00  4.0146396342707713e-01 2.7660093044752209e-02 0.0000000000000000e+00  1.0231628910621763e-03 3.9314889479955591e-03 0.0000000000000000e+00  1.4636397702808930e-02 1.1973610179529399e-02 0.0000000000000000e+00  4.6644498389040145e-01 7.7484183885878438e-02 0.0000000000000000e+00  4.1119609269093654e-01 1.5222048624664787e-02 0.0000000000000000e+00  4.7527564126073762e-01 5.8701281077015638e-02 0.0000000000000000e+00  2.4663308427813432e-01 -6.5231010001468831e-02 0.0000000000000000e+00  6.3463703639450864e-01 6.7004186813039823e-02 0.0000000000000000e+00  1.7469688616406756e-01 -3.8803780491528987e-02 0.0000000000000000e+00  4.8187438229741746e-02 -1.6457712711737765e-02 0.0000000000000000e+00  4.4495249063137718e-02 1.0133148075881622e-02 0.0000000000000000e+00  3.5112405280814718e-01 -3.1339334646093620e-02 0.0000000000000000e+00  2.6780287634694822e-01 -4.1416544709311125e-03 0.0000000000000000e+00  1.6754341331967246e-01 7.3754806717023734e-04 0.0000000000000000e+00  5.6683387879184488e-01 -3.0951023424763443e-03 0.0000000000000000e+00  1.0