<?xml version="1.0"?>
<VTKFile type="UnstructuredGrid"  version="0.1"  >
<UnstructuredGrid>
<Piece  NumberOfPoints="2868" NumberOfCells="5400">
<Points>
<DataArray  type="Float64"  NumberOfComponents="3"  format="ascii">0.534923 0.326073 0  0.510642 0.314196 0  0.466125 0.293082 0  0.436448 0.281205 0  0.409468 0.275927 0  0.368998 0.270648 0  0.35281 0.275927 0  0.381139 0.302319 0  0.405421 0.326073 0  0.410817 0.33531 0  0.408119 0.349826 0  0.400025 0.357744 0  0.375743 0.368301 0  0.329878 0.392055 0  0.297502 0.432963 0  0.282663 0.476511 0  0.285361 0.524018 0  0.298851 0.572845 0  0.317737 0.6045160000000001 0  0.337972 0.6361869999999999 0  0.360904 0.674457 0  0.368998 0.69953 0  0.359555 0.7219640000000001 0  0.360904 0.757594 0  0.370347 0.766831 0  0.381139 0.762872 0  0.390582 0.741758 0  0.404072 0.720644 0  0.424307 0.707448 0  0.447239 0.702169 0  0.480964 0.704808 0  0.479615 0.6889729999999999 0  0.468823 0.675776 0  0.447239 0.6691780000000001 0  0.428354 0.6691780000000001 0  0.410817 0.6639 0  0.404072 0.653343 0  0.395978 0.628269 0  0.387884 0.59132 0  0.389233 0.576804 0  0.397327 0.557009 0  0.410817 0.547772 0  0.424307 0.546452 0  0.437797 0.55305 0  0.44589 0.5662469999999999 0  0.441843 0.582082 0  0.439145 0.5979179999999999 0  0.449937 0.609795 0  0.468823 0.603196 0  0.479615 0.59 0  0.489058 0.570205 0  0.494454 0.546452 0  0.505246 0.522699 0  0.522783 0.509502 0  0.55246 0.494986 0  0.586185 0.484429 0  0.615863 0.48047 0  0.64554 0.473872 0  0.6671240000000001 0.461995 0  0.683312 0.451438 0  0.696802 0.435603 0  0.703547 0.417128 0  0.7116400000000001 0.393374 0  0.7183850000000001 0.37226 0  0.7251300000000001 0.364342 0  0.739969 0.353785 0  0.7453650000000001 0.344548 0  0.7453650000000001 0.327393 0  0.737271 0.318155 0  0.7183850000000001 0.316835 0  0.7008490000000001 0.319475 0  0.677916 0.318155 0  0.650936 0.316835 0  0.610467 0.318155 0  0.57944 0.324753 0  0.559205 0.328712 0  0.5389699999999999 0.326073 0  1 1 0  1 0 0  0 0 0  0 1 0  0.532238 0.32476 0  0.528748 0.323052 0  0.52421 0.320833 0  0.518311 0.317947 0  0.503447 0.310783 0  0.494093 0.306347 0  0.481933 0.30058 0  0.452151 0.28749 0  0.392327 0.273691 0  0.379141 0.271971 0  0.360474 0.283066 0  0.369797 0.291752 0  0.391424 0.31238 0  0.399335 0.32012 0  0.40958 0.341964 0  0.393939 0.36039 0  0.386028 0.36383 0  0.364248 0.374254 0  0.349304 0.381994 0  0.315801 0.409841 0  0.292986 0.551616 0  0.350934 0.657818 0  0.360127 0.737055 0  0.360566 0.748664 0  0.385245 0.753692 0  0.396447 0.732578 0  0.466301 0.703661 0  0.459439 0.672908 0  0.418442 0.666195 0  0.400553 0.642441 0  0.39255 0.612619 0  0.389913 0.60058 0  0.392752 0.568197 0  0.444131 0.573132 0  0.458149 0.606926 0  0.5005540000000001 0.533026 0  0.571522 0.489019 0  0.632637 0.476741 0  0.689177 0.444553 0  0.708121 0.403702 0  0.715453 0.38144 0  0.732406 0.359166 0  0.7453650000000001 0.337089 0  0.72906 0.317581 0  0.629879 0.317522 0  0.59293 0.321884 0  0.568003 0.326991 0  0.55202 0.327775 0  0.546493 0.327054 0  0.542241 0.326499 0  1 0.9 0  1 0.8 0  1 0.7 0  1 0.6 0  1 0.5 0  1 0.4 0  1 0.3 0  1 0.2 0  1 0.1 0  0.9 0 0  0.8 0 0  0.7 0 0  0.6 0 0  0.5 0 0  0.4 0 0  0.3 0 0  0.2 0 0  0.1 0 0  0.1 1 0  0.2 1 0  0.3 1 0  0.4 1 0  0.5 1 0  0.6 1 0  0.7 1 0  0.8 1 0  0.9 1 0  0 0.1 0  0 0.2 0  0 0.3 0  0 0.4 0  0 0.5 0  0 0.6 0  0 0.7 0  0 0.8 0  0 0.9 0  0.535686 0.5031910000000001 0  0.753987 0.733359 0  0.167145 0.741436 0  0.173378 0.257204 0  0.733497 0.159862 0  0.554096 0.15788 0  0.849187 0.479053 0  0.488793 0.838452 0  0.138507 0.5592 0  0.30686 0.154944 0  0.348904 0.890523 0  0.058006 0.065099 0  0.06984899999999999 0.937917 0  0.93633 0.939704 0  0.934625 0.053613 0  0.343397 0.333452 0  0.473272 0.639943 0  0.433266 0.638072 0  0.415174 0.58269 0  0.533435 0.545042 0  0.390848 0.340652 0  0.53655 0.320242 0  0.127966 0.393775 0  0.83861 0.850455 0  0.635242 0.8551299999999999 0  0.852158 0.633441 0  0.653427 0.626848 0  0.861226 0.24292 0  0.166128 0.12976 0  0.216875 0.8698709999999999 0  0.458305 0.11179 0  0.84446 0.101633 0  0.202024 0.642528 0  0.644825 0.115855 0  0.671342 0.218358 0  0.251354 0.286186 0  0.262388 0.75153 0  0.063044 0.751571 0  0.068189 0.242962 0  0.435781 0.9053949999999999 0  0.934144 0.451133 0  0.568393 0.237622 0  0.814984 0.395506 0  0.752951 0.517227 0  0.456254 0.780699 0  0.073352 0.531116 0  0.337731 0.206071 0  0.363213 0.960371 0  0.330742 0.363592 0  0.516613 0.55705 0  0.369057 0.332992 0  0.500926 0.617309 0  0.498004 0.665534 0  0.412142 0.61178 0  0.454233 0.6366039999999999 0  0.422782 0.567496 0  0.541193 0.5214800000000001 0  0.439761 0.65557 0  0.5163 0.533672 0  0.414775 0.64562 0  0.40073 0.576135 0  0.430362 0.5880339999999999 0  0.385432 0.351492 0  0.400298 0.335397 0  0.398325 0.348194 0  0.528702 0.314885 0  0.540814 0.322334 0  0.534477 0.322953 0  0.619095 0.743583 0  0.885162 0.737972 0  0.08076 0.668849 0  0.90734 0.36634 0  0.09468699999999999 0.868937 0  0.759838 0.912152 0  0.901518 0.540898 0  0.747285 0.607479 0  0.229182 0.071641 0  0.06915399999999999 0.450091 0  0.244775 0.203309 0  0.076534 0.331755 0  0.897847 0.167826 0  0.578909 0.911415 0  0.07713299999999999 0.146341 0  0.477215 0.203448 0  0.922631 0.869341 0  0.517415 0.074785 0  0.297026 0.827793 0  0.7832710000000001 0.246505 0  0.74519 0.061079 0  0.36033 0.069068 0  0.210313 0.475228 0  0.859426 0.928758 0  0.5745479999999999 0.609182 0  0.243069 0.383398 0  0.283099 0.934598 0  0.417416 0.843141 0  0.643942 0.553164 0  0.112687 0.079336 0  0.281357 0.658386 0  0.765043 0.436177 0  0.611361 0.198486 0  0.234496 0.58911 0  0.206479 0.702638 0  0.679608 0.155818 0  0.62682 0.259978 0  0.690538 0.264164 0  0.448938 0.956308 0  0.808154 0.328403 0  0.379583 0.91913 0  0.308083 0.297769 0  0.312358 0.730249 0  0.563101 0.278576 0  0.435597 0.746198 0  0.385475 0.225229 0  0.572248 0.518034 0  0.357864 0.35422 0  0.497647 0.641694 0  0.458101 0.655768 0  0.360474 0.310727 0  0.467038 0.620139 0  0.47798 0.659909 0  0.41102 0.628072 0  0.48324 0.609015 0  0.427544 0.617941 0  0.388633 0.328253 0  0.405336 0.599404 0  0.408351 0.565178 0  0.42395 0.600985 0  0.431562 0.576523 0  0.424905 0.6551979999999999 0  0.398064 0.58782 0  0.427739 0.557934 0  0.5192909999999999 0.303443 0  0.53142 0.320293 0  0.5449000000000001 0.323642 0  0.537166 0.323513 0  0.153974 0.920841 0  0.9181859999999999 0.67343 0  0.759946 0.820588 0  0.5375259999999999 0.783091 0  0.816532 0.545843 0  0.813991 0.178083 0  0.836774 0.702023 0  0.149815 0.318856 0  0.662287 0.923338 0  0.680146 0.791192 0  0.708961 0.663172 0  0.9372779999999999 0.287318 0  0.574622 0.6881660000000001 0  0.5894740000000001 0.076262 0  0.502822 0.926683 0  0.222269 0.811068 0  0.380457 0.164786 0  0.15321 0.684154 0  0.458063 0.051413 0  0.161702 0.056026 0  0.199351 0.198818 0  0.298946 0.09553200000000001 0  0.902465 0.795949 0  0.121139 0.791477 0  0.906269 0.112287 0  0.056109 0.822332 0  0.512172 0.13237 0  0.940964 0.741805 0  0.888887 0.408777 0  0.354543 0.825964 0  0.808736 0.068638 0  0.068507 0.394071 0  0.719105 0.563843 0  0.247287 0.149664 0  0.293062 0.237128 0  0.240524 0.434997 0  0.141255 0.623289 0  0.945202 0.160621 0  0.502914 0.247629 0  0.144669 0.480811 0  0.665025 0.060817 0  0.728047 0.224344 0  0.861995 0.313312 0  0.200068 0.534235 0  0.253262 0.965623 0  0.893804 0.49307 0  0.604391 0.572456 0  0.947088 0.345347 0  0.439372 0.227307 0  0.629847 0.159823 0  0.273405 0.880181 0  0.302744 0.776823 0  0.781502 0.295365 0  0.275342 0.349602 0  0.7283849999999999 0.472798 0  0.229136 0.246478 0  0.807794 0.480346 0  0.709476 0.112786 0  0.275506 0.694991 0  0.771674 0.394419 0  0.449715 0.861802 0  0.419159 0.799696 0  0.674851 0.503139 0  0.280443 0.61016 0  0.572443 0.192538 0  0.393113 0.87525 0  0.405555 0.948428 0  0.330942 0.934103 0  0.540509 0.597101 0  0.312763 0.6689310000000001 0  0.254368 0.540179 0  0.595265 0.25915 0  0.606679 0.234099 0  0.657131 0.279138 0  0.722458 0.279478 0  0.333 0.308056 0  0.351529 0.246142 0  0.455714 0.7257940000000001 0  0.585239 0.295143 0  0.340062 0.72492 0  0.545593 0.293773 0  0.555449 0.545426 0  0.414311 0.737314 0  0.590854 0.502323 0  0.350507 0.368444 0  0.484423 0.625665 0  0.483899 0.674542 0  0.378137 0.317274 0  0.446416 0.646404 0  0.373532 0.347654 0  0.446876 0.619769 0  0.466106 0.666068 0  0.437545 0.609254 0  0.434988 0.565726 0  0.41462 0.656829 0  0.418803 0.556961 0  0.398425 0.327446 0  0.517803 0.310421 0  0.549516 0.322918 0  0.57701 0.842889 0  0.8291269999999999 0.773906 0  0.643235 0.684732 0  0.134281 0.207734 0  0.865997 0.055966 0  0.680959 0.723345 0  0.165229 0.8415550000000001 0  0.54558 0.959672 0  0.783726 0.656439 0  0.913315 0.595533 0  0.699439 0.860667 0  0.785839 0.125076 0  0.551673 0.037713 0  0.9200970000000001 0.223214 0  0.206406 0.299726 0  0.087064 0.596401 0  0.935644 0.394252 0  0.964557 0.252582 0  0.230124 0.928346 0  0.120579 0.271764 0  0.8572149999999999 0.524082 0  0.7670979999999999 0.5551469999999999 0  0.936094 0.507131 0  0.804064 0.59585 0  0.700565 0.608273 0  0.429773 0.174231 0  0.117746 0.727333 0  0.5389620000000001 0.730231 0  0.862761 0.359173 0  0.821444 0.284046 0  0.193552 0.35818 0  0.234923 0.505555 0  0.193209 0.421217 0  0.220144 0.755896 0  0.594015 0.131642 0  0.283813 0.195855 0  0.517519 0.213961 0  0.553509 0.639116 0  0.280391 0.378018 0  0.852183 0.436817 0  0.746983 0.197173 0  0.821806 0.221318 0  0.449853 0.828453 0  0.883758 0.453926 0  0.183484 0.589542 0  0.348384 0.129314 0  0.255254 0.838525 0  0.504849 0.798516 0  0.320344 0.863432 0  0.611669 0.525425 0  0.265864 0.804962 0  0.72056 0.521442 0  0.613372 0.6101220000000001 0  0.481262 0.881068 0  0.655778 0.191988 0  0.701921 0.196918 0  0.5658260000000001 0.5731810000000001 0  0.46914 0.240927 0  0.343219 0.173284 0  0.888786 0.278502 0  0.244113 0.6750930000000001 0  0.739546 0.417914 0  0.784023 0.355942 0  0.326805 0.265549 0  0.248616 0.6
[...]
<PointData  Vectors="f_21"> 
<DataArray  type="Float64"  Name="f_21"  NumberOfComponents="3" format="ascii">1.4102464287721186e+00 3.2345890360185581e-01 0.0000000000000000e+00  1.3543965236410691e+00 3.6100500559534360e-01 0.0000000000000000e+00  1.1833792282495057e+00 4.2084712387420192e-01 0.0000000000000000e+00  1.0331283776747300e+00 4.4194605860075226e-01 0.0000000000000000e+00  8.9203370120200431e-01 4.3969762199062640e-01 0.0000000000000000e+00  6.5538344869735876e-01 4.2096051244681459e-01 0.0000000000000000e+00  5.1644128595601568e-01 3.8306807066036730e-01 0.0000000000000000e+00  3.5507974801516612e-01 4.9022384650714779e-01 0.0000000000000000e+00  2.6521837992895547e-01 5.7672772188137800e-01 0.0000000000000000e+00  2.3039864596900742e-01 5.9717833934781916e-01 0.0000000000000000e+00  1.7526088171247969e-01 5.8691203361577715e-01 0.0000000000000000e+00  1.4492620368033116e-01 5.5568737324887174e-01 0.0000000000000000e+00  1.0682792724806253e-01 4.5806438909666247e-01 0.0000000000000000e+00  4.9722390793790094e-02 2.6362846431115144e-01 0.0000000000000000e+00  -6.1209958423632657e-03 1.1557271262282884e-01 0.0000000000000000e+00  -3.6232016113659206e-02 8.6394746799683063e-04 0.0000000000000000e+00  -3.9254744433430300e-02 -1.0960905901090930e-01 0.0000000000000000e+00  -1.3126946233524504e-02 -2.3015053143530753e-01 0.0000000000000000e+00  3.0940626516196904e-02 -3.3406823041897388e-01 0.0000000000000000e+00  9.7979119681832566e-02 -4.3811902602419522e-01 0.0000000000000000e+00  2.1109272293602757e-01 -5.5779642061514079e-01 0.0000000000000000e+00  3.0287975435517417e-01 -6.0402071385460943e-01 0.0000000000000000e+00  3.9257991054284297e-01 -5.8916053783202305e-01 0.0000000000000000e+00  6.5890802565688000e-01 -6.3767345368148320e-01 0.0000000000000000e+00  8.7568718605287454e-01 -7.0153897209936522e-01 0.0000000000000000e+00  1.0567208183242811e+00 -7.1617288317291317e-01 0.0000000000000000e+00  1.3356081591614806e+00 -7.0895257237939202e-01 0.0000000000000000e+00  1.4792411367300482e+00 -6.4892159621415813e-01 0.0000000000000000e+00  1.5441505921312766e+00 -5.7797894845424613e-01 0.0000000000000000e+00  1.5771044090749158e+00 -5.2353642564539749e-01 0.0000000000000000e+00  1.6754584664342707e+00 -5.1922105721020961e-01 0.0000000000000000e+00  1.8368849895049257e+00 -5.5635147721342781e-01 0.0000000000000000e+00  1.9209702353174312e+00 -6.0393463461587005e-01 0.0000000000000000e+00  1.9532340406236899e+00 -6.9155277993899200e-01 0.0000000000000000e+00  1.9498416526053535e+00 -7.7808594322155644e-01 0.0000000000000000e+00  1.9729692384805984e+00 -8.6263424186847859e-01 0.0000000000000000e+00  2.0226130055119795e+00 -8.9600862586354524e-01 0.0000000000000000e+00  2.1438925438615017e+00 -9.4268840951269917e-01 0.0000000000000000e+00  2.3435186289182477e+00 -9.9785247612733863e-01 0.0000000000000000e+00  2.4267958300930057e+00 -9.9224256235175412e-01 0.0000000000000000e+00  2.5414264835772045e+00 -9.4723719871370315e-01 0.0000000000000000e+00  2.5947999166775739e+00 -8.7025677325902673e-01 0.0000000000000000e+00  2.6024774964312289e+00 -7.9328969000170568e-01 0.0000000000000000e+00  2.5648435761687196e+00 -7.1620234308973107e-01 0.0000000000000000e+00  2.4887512099334175e+00 -6.6954996890444862e-01 0.0000000000000000e+00  2.3957979555570361e+00 -6.9412204139552958e-01 0.0000000000000000e+00  2.3003842728804962e+00 -7.1628603543100211e-01 0.0000000000000000e+00  2.2256093288082139e+00 -6.7129555077249015e-01 0.0000000000000000e+00  2.2378223762009184e+00 -5.9025969396564182e-01 0.0000000000000000e+00  2.2776091941429777e+00 -5.4362858547032034e-01 0.0000000000000000e+00  2.3358248198787552e+00 -5.0341911702237463e-01 0.0000000000000000e+00  2.4028193071401773e+00 -4.8096872981378286e-01 0.0000000000000000e+00  2.4689286200453999e+00 -4.4660401692340562e-01 0.0000000000000000e+00  2.5051897319379250e+00 -3.9375529582277990e-01 0.0000000000000000e+00  2.5421329165646473e+00 -3.0299470316853561e-01 0.0000000000000000e+00  2.5630202987390289e+00 -1.9974070956537895e-01 0.0000000000000000e+00  2.5594435777655935e+00 -1.0970594480575545e-01 0.0000000000000000e+00  2.5506273537841873e+00 -1.8517195081629561e-02 0.0000000000000000e+00  2.5451195367623742e+00 4.5232606820548596e-02 0.0000000000000000e+00  2.5323179752913845e+00 9.8421804445891131e-02 0.0000000000000000e+00  2.5096145987124356e+00 1.4920483927282155e-01 0.0000000000000000e+00  2.4736511153721343e+00 1.8668030133926369e-01 0.0000000000000000e+00  2.4208058526658993e+00 2.1892988660908991e-01 0.0000000000000000e+00  2.3666888130481167e+00 2.3176895613988982e-01 0.0000000000000000e+00  2.3473656984259015e+00 2.2746657874925802e-01 0.0000000000000000e+00  2.3056737442429056e+00 2.2885273926487953e-01 0.0000000000000000e+00  2.2491926384189389e+00 2.3547018799466518e-01 0.0000000000000000e+00  2.1073116705894566e+00 2.4547096665738699e-01 0.0000000000000000e+00  1.9874849336614633e+00 2.5329814257818123e-01 0.0000000000000000e+00  1.8673186302995832e+00 2.4266441780640652e-01 0.0000000000000000e+00  1.8025227269716040e+00 2.3836721771049862e-01 0.0000000000000000e+00  1.7349061721787349e+00 2.4950200616233068e-01 0.0000000000000000e+00  1.6489511369906760e+00 2.6630540300696026e-01 0.0000000000000000e+00  1.5274433890634249e+00 2.8596901242775696e-01 0.0000000000000000e+00  1.4569514786626576e+00 2.9185441472562007e-01 0.0000000000000000e+00  1.4339340706618422e+00 2.9977447133678436e-01 0.0000000000000000e+00  1.4128551189339538e+00 3.1869495579760049e-01 0.0000000000000000e+00  1.7955314913316396e+00 2.5376545355624253e-01 0.0000000000000000e+00  1.5981494892833166e+00 -1.2735468734257230e-01 0.0000000000000000e+00  0.0000000000000000e+00 0.0000000000000000e+00 0.0000000000000000e+00  0.0000000000000000e+00 0.0000000000000000e+00 0.0000000000000000e+00  1.4064919066255750e+00 3.2754224079149147e-01 0.0000000000000000e+00  1.4000767756099004e+00 3.3293970821211977e-01 0.0000000000000000e+00  1.3902755542601761e+00 3.3997633116803339e-01 0.0000000000000000e+00  1.3758773949228094e+00 3.4922141364776360e-01 0.0000000000000000e+00  1.3322625995836084e+00 3.7160544431329012e-01 0.0000000000000000e+00  1.3003703366091763e+00 3.8525610200389243e-01 0.0000000000000000e+00  1.2542835834970236e+00 4.0158915945651663e-01 0.0000000000000000e+00  1.1176645895601121e+00 4.3341801136339769e-01 0.0000000000000000e+00  8.0411292024437775e-01 4.3184133720433238e-01 0.0000000000000000e+00  7.3062681324210876e-01 4.2635453338303264e-01 0.0000000000000000e+00  4.5000309240319036e-01 4.2250726539210642e-01 0.0000000000000000e+00  4.0066566132155484e-01 4.5338106454266291e-01 0.0000000000000000e+00  3.1630863446483071e-01 5.2522139920140987e-01 0.0000000000000000e+00  2.8746847808181419e-01 5.5397430342455900e-01 0.0000000000000000e+00  2.0520689428987296e-01 5.9249981311196909e-01 0.0000000000000000e+00  1.3485470943536465e-01 5.3177450578667929e-01 0.0000000000000000e+00  1.2215151318352550e-01 5.0015179902246421e-01 0.0000000000000000e+00  8.8128861565039157e-02 4.0997803754232709e-01 0.0000000000000000e+00  6.8167601496918376e-02 3.4719653098200126e-01 0.0000000000000000e+00  2.1521833050879405e-02 1.9882671055718673e-01 0.0000000000000000e+00  -2.7947410411911358e-02 -1.7554696644450640e-01 0.0000000000000000e+00  1.5686731043499180e-01 -5.0623585421796080e-01 0.0000000000000000e+00  4.7499373281620716e-01 -6.1479306293744984e-01 0.0000000000000000e+00  5.6035397307989288e-01 -6.3361484949175084e-01 0.0000000000000000e+00  1.2157582257597646e+00 -7.2671160006604096e-01 0.0000000000000000e+00  1.4068300181080193e+00 -6.8200126229956914e-01 0.0000000000000000e+00  1.6082042263217462e+00 -5.0301628298486400e-01 0.0000000000000000e+00  1.9371551644171945e+00 -6.4022428247201679e-01 0.0000000000000000e+00  1.9625859234882779e+00 -8.2563748922799418e-01 0.0000000000000000e+00  2.0741820910101745e+00 -9.1516766251898507e-01 0.0000000000000000e+00  2.2247062626509289e+00 -9.6585712625564279e-01 0.0000000000000000e+00  2.2909671825517628e+00 -9.8431197254289238e-01 0.0000000000000000e+00  2.4766442662795005e+00 -9.7293157430450472e-01 0.0000000000000000e+00  2.4485734658770508e+00 -6.7989570228480845e-01 0.0000000000000000e+00  2.2304173386271922e+00 -6.3607802871090913e-01 0.0000000000000000e+00  2.4399923311562484e+00 -4.6118068854299960e-01 0.0000000000000000e+00  2.5544271673612569e+00 -2.4460122847447360e-01 0.0000000000000000e+00  2.5564936125785174e+00 -5.8652149550777632e-02 0.0000000000000000e+00  2.5236885135208889e+00 1.2170433455896451e-01 0.0000000000000000e+00  2.4450677384184520e+00 2.0687303155857803e-01 0.0000000000000000e+00  2.3901771595815147e+00 2.2890759233959557e-01 0.0000000000000000e+00  2.3298691619118741e+00 2.2599560847302436e-01 0.0000000000000000e+00  2.1944529498036567e+00 2.5022223396588533e-01 0.0000000000000000e+00  1.9268371283829133e+00 2.4561970016751497e-01 0.0000000000000000e+00  1.5840510985788332e+00 2.7623464677266879e-01 0.0000000000000000e+00  1.4819927384078271e+00 2.8925442329307388e-01 0.0000000000000000e+00  1.4415854814149367e+00 2.9538284557296740e-01 0.0000000000000000e+00  1.4274798360826326e+00 3.0551115299609277e-01 0.0000000000000000e+00  1.4213507885662438e+00 3.1082842033385727e-01 0.0000000000000000e+00  1.4165257602671044e+00 3.1515899121408286e-01 0.0000000000000000e+00  1.9827060094955458e+00 2.9683442445688168e-01 0.0000000000000000e+00  2.1865211312234618e+00 3.3334433220293397e-01 0.0000000000000000e+00  2.3876797977439979e+00 3.2328979652146128e-01 0.0000000000000000e+00  2.5508926283679956e+00 2.4818478741628550e-01 0.0000000000000000e+00  2.6116693700911986e+00 1.0230258900442428e-01 0.0000000000000000e+00  2.5183959626434298e+00 -5.5813485644377041e-02 0.0000000000000000e+00  2.2945611053242980e+00 -1.5544303560821648e-01 0.0000000000000000e+00  2.0474712503082655e+00 -1.7365971685462536e-01 0.0000000000000000e+00  1.8171009794415205e+00 -1.5643077696316338e-01 0.0000000000000000e+00  1.5017395402771854e+00 8.7166393550047558e-02 0.0000000000000000e+00  1.3932932716760376e+00 2.7925848036928697e-01 0.0000000000000000e+00  1.2743056525620546e+00 4.2860426203827018e-01 0.0000000000000000e+00  1.1390794684222532e+00 5.3803251814175568e-01 0.0000000000000000e+00  1.0071095382102560e+00 6.1359748236242884e-01 0.0000000000000000e+00  8.9772848925922588e-01 6.0825413698031461e-01 0.0000000000000000e+00  7.6123471796132369e-01 4.8550315235172359e-01 0.0000000000000000e+00  5.6126820643608377e-01 3.1650935728432800e-01 0.0000000000000000e+00  3.1083351542249477e-01 1.7274134745566921e-01 0.0000000000000000e+00  3.5216989588917985e-01 -2.0178166678861942e-01 0.0000000000000000e+00  6.3246237785928172e-01 -4.0038334312465085e-01 0.0000000000000000e+00  8.2727259571916734e-01 -6.2773917040142990e-01 0.0000000000000000e+00  9.1607343063040225e-01 -7.3080024367313001e-01 0.0000000000000000e+00  9.9703706269116599e-01 -6.2670383878727520e-01 0.0000000000000000e+00  1.1468288483413616e+00 -4.1377300914313553e-01 0.0000000000000000e+00  1.3450471878702321e+00 -2.1189989118171865e-01 0.0000000000000000e+00  1.5397537214075905e+00 -5.9431368766615665e-02 0.0000000000000000e+00  1.6907179554506941e+00 8.1506997216912000e-02 0.0000000000000000e+00  0.0000000000000000e+00 0.0000000000000000e+00 0.0000000000000000e+00  0.0000000000000000e+00 0.0000000000000000e+00 0.0000000000000000e+00  0.0000000000000000e+00 0.0000000000000000e+00 0.0000000000000000e+00  0.0000000000000000e+00 0.0000000000000000e+00 0.0000000000000000e+00  0.0000000000000000e+00 0.0000000000000000e+00 0.0000000000000000e+00  0.0000000000000000e+00 0.0000000000000000e+00 0.0000000000000000e+00  0.0000000000000000e+00 0.0000000000000000e+00 0.0000000000000000e+00  0.0000000000000000e+00 0.0000000000000000e+00 0.0000000000000000e+00  0.0000000000000000e+00 0.0000000000000000e+00 0.0000000000000000e+00  2.5216222097187373e+00 -3.5431431017924730e-01 0.0000000000000000e+00  2.0459663074482966e+00 4.9487300085443588e-02 0.0000000000000000e+00  2.1183429110742194e-01 -9.9220438706245265e-02 0.0000000000000000e+00  2.1536088990929281e-01 5.7726012474181992e-02 0.0000000000000000e+00  1.5869497817450027e+00 3.0600188640728515e-01 0.0000000000000000e+00  1.2031921496640601e+00 4.7587525625103733e-01 0.0000000000000000e+00  2.5399057585469196e+00 1.2650258420387459e-01 0.0000000000000000e+00  1.2156440303546370e+00 -5.5007505772020637e-01 0.0000000000000000e+00  -2.1889863553124767e-02 -2.5090933189326623e-02 0.0000000000000000e+00  6.3071880747075670e-01 3.8432451199602102e-01 0.0000000000000000e+00  8.3965401496173020e-01 -6.5192788706727267e-01 0.0000000000000000e+00  1.3356718392181452e-01 5.9614009122699797e-02 0.0000000000000000e+00  1.8110332280231115e-01 -9.0997890832906964e-02 0.0000000000000000e+00  1.8382110744836200e+00 1.6644849438478337e-01 0.0000000000000000e+00  1.6507799432026342e+00 -2.8583389287955320e-03 0.0000000000000000e+00  2.2894223027037311e-01 3.3522196026666029e-01 0.0000000000000000e+00  2.0880402807620566e+00 -5.7633925086807358e-01 0.0000000000000000e+00  2.0946575888253371e+00 -7.5262562485327056e-01 0.0000000000000000e+00  2.3914084424203432e+00 -8.4598947547724801e-01 0.0000000000000000e+00  2.4052520409605589e+00 -3.6101139628991324e-01 0.0000000000000000e+00  2.1006220507491127e-01 5.2039613976547727e-01 0.0000000000000000e+00  1.4011057406758485e+00 3.2313630569992974e-01 0.0000000000000000e+00  2.1136619201927515e-02 -2.9594147041269597e-02 0.0000000000000000e+00  1.8840743175984798e+00 7.9033774666703915e-02 0.0000000000000000e+00  1.5113931854019955e+00 -2.3991113002074421e-01 0.0000000000000000e+00  2.3914358025892875e+00 1.5836999451552602e-01 0.0000000000000000e+00  2.2081481067909992e+00 -4.3314847970203872e-02 0.0000000000000000e+00  2.0021090598002784e+00 7.6184011548336636e-02 0.0000000000000000e+00  3.3278299934363209e-01 1.5768727631196280e-01 0.0000000000000000e+00  4.9484127778539716e-01 -3.2371978480564767e-01 0.0000000000000000e+00  9.6771702674689553e-01 5.6436882177426251e-01 0.0000000000000000e+00  1.6466211978680059e+00 1.5826739969740591e-01 0.0000000000000000e+00  7.3012115704483294e-02 -9.7421761728662362e-02 0.0000000000000000e+00  1.3456051556822757e+00 4.3052617400529020e-01 0.0000000000000000e+00  1.5699549235554875e+00 3.3711617270360089e-01 0.0000000000000000e+00  2.9136358397790274e-01 1.2783435309595467e-01 0.0000000000000000e+00  4.0147773817019539e-01 -2.8507075230429657e-01 0.0000000000000000e+00  7.5910770842289116e-02 -2.9641540387910178e-03 0.0000000000000000e+00  7.9182376492562101e-02 -2.2236621110333556e-03 0.0000000000000000e+00  1.0056438318438210e+00 -6.7490532947890125e-01 0.0000000000000000e+00  2.5565558085380991e+00 7.1307418320149987e-02 0.0000000000000000e+00  1.3402053205880908e+00 3.8129892807128363e-01 0.0000000000000000e+00  2.4300760542038158e+00 1.1316160697862020e-01 0.0000000000000000e+00  2.4925415061174405e+00 1.3710419215503300e-01 0.0000000000000000e+00  1.2778294947751268e+00 -5.5962664347344282e-01 0.0000000000000000e+00  -1.3145048146809389e-02 -7.1169687702559038e-03 0.0000000000000000e+00  6.6830994944048838e-01 4.0302257107090400e-01 0.0000000000000000e+00  8.7053381121024842e-01 -6.9525272279393746e-01 0.0000000000000000e+00  1.2929451569334746e-01 2.7728314867484011e-01 0.0000000000000000e+00  2.3729316863634531e+00 -4.1410605481533269e-01 0.0000000000000000e+00  2.3639338833803053e-01 4.3627410058144239e-01 0.0000000000000000e+00  2.1803778436129910e+00 -4.6722685363475325e-01 0.0000000000000000e+00  1.9714233883985277e+00 -4.7199935080041394e-01 0.0000000000000000e+00  2.2273457657259774e+00 -8.6039856066240228e-01 0.0000000000000000e+00  2.1020921864295956e+00 -6.5603189000401230e-01 0.0000000000000000e+00  2.4808084690140473e+00 -8.0252811260396084e-01 0.0000000000000000e+00  2.4695424661020202e+00 -3.3715126289198222e-01 0.0000000000000000e+00  2.0139613568568171e+00 -7.2404156478597970e-01 0.0000000000000000e+00  2.4378719502988648e+00 -4.1394708452871087e-01 0.0000000000000000e+00  2.0589897410313185e+00 -8.4392021378936466e-01 0.0000000000000000e+00  2.4302568996863925e+00 -9.2701807855567520e-01 0.0000000000000000e+00  2.3595320536678934e+00 -7.6201222387294743e-01 0.0000000000000000e+00  1.6929636923643712e-01 4.9811677617342492e-01 0.0000000000000000e+00  2.3007054448178152e-01 5.5716445609631204e-01 0.0000000000000000e+00  1.8157054081459842e-01 5.4920484470450581e-01 0.0000000000000000e+00  1.3800874292916914e+00 3.3513838560482656e-01 0.0000000000000000e+00  1.4091772124258644e+00 3.1789981706651210e-01 0.0000000000000000e+00  1.4042816612163813e+00 3.2470447882975351e-01 0.0000000000000000e+00  1.7911879341407282e+00 -1.8027266121818553e-01 0.0000000000000000e+00  2.2056116659647835e+00 1.7592369561325943e-01 0.0000000000000000e+00  4.4225927293405472e-02 5.5981928744812696e-03 0.0000000000000000e+00  2.3965148034111587e+00 2.8797044737516236e-02 0.0000000000000000e+00  1.9737219430396291e-01 -8.4459930242993822e-02 0.0000000000000000e+00  1.6188272079742327e+00 -5.9745421423174225e-02 0.0000000000000000e+00  2.5496646455899752e+00 1.4791405537089636e-01 0.0000000000000000e+00  2.3414755912873693e+00 1.0213075134821070e-01 0.0000000000000000e+00  5.3116798641832130e-01 3.1215369640566853e-01 0.0000000000000000e+00  -6.6093261180191296e-03 -2.2663965967388868e-02 0.0000000000000000e+00  4.3196401682623303e-01 2.1193686583477492e-01 0.0000000000000000e+00  4.3360610689791489e-02 -2.4157892024000992e-02 0.0000000000000000e+00  1.8660207688293355e+00 3.8497045490319355e-02 0.0000000000000000e+00  1.2803440661274428e+00 -4.0638826423856284e-01 0.0000000000000000e+00  1.3578858800083662e-01 3.9658954302911331e-02 0.0000000000000000e+00  1.0454796872127361e+00 4.8992185514696152e-01 0.0000000000000000e+00  1.9590438524594040e+00 1.7971584656964240e-01 0.0000000000000000e+00  1.0672714658327953e+00 5.6424210274518449e-01 0.0000000000000000e+00  6.7840280039167200e-01 -4.8103622655351275e-01 0.0000000000000000e+00  1.8696947872188967e+00 1.9340264029258758e-01 0.0000000000000000e+00  1.4262468885166324e+00 3.3980466639270390e-01 0.0000000000000000e+00  7.9318625145115484e-01 5.3277649481010247e-01 0.0000000000000000e+00  -4.4607996441115357e-02 -3.3987638723966228e-02 0.0000000000000000e+00  1.7534459597881107e+00 6.0162893482203758e-02 0.0000000000000000e+00  2.2143736113907928e+00 -2.3192343019768250e-01 0.0000000000000000e+00  6.4045850668324716e-02 4.5273373456343906e-02 0.0000000000000000e+00  7.1469885748702644e-01 -5.4806269878111635e-01 0.0000000000000000e+00  1.0159260497430633e+00 -6.6946666828589685e-01 0.0000000000000000e+00  2.3873392681772199e+00 -3.8762647045302245e-02 0.0000000000000000e+00  2.5575840592405047e-01 1.2407198984948553e-01 0.0000000000000000e+00  1.4245945328513754e-01 -2.6497434928046371e-01 0.0000000000000000e+00  2.5016727940930061e+00 1.5520922375149346e-01 0.0000000000000000e+00  1.3943237282611576e+00 3.9385821675075411e-01 0.0000000000000000e+00  -3.4007964794841414e-03 -1.1839928680096756e-01 0.0000000000000000e+00  1.9230988903777713e-01 -1.3453064781774193e-01 0.0000000000000000e+00  1.4766503772626880e+00 3.7047666879313612e-01 0.0000000000000000e+00  1.5254428411144307e+00 3.2904051327539946e-01 0.0000000000000000e+00  1.6998719820825059e+00 2.9439318816782833e-01 0.0000000000000000e+00  9.8843243973345485e-01 -6.8091839624457018e-01 0.0000000000000000e+00  2.1993701175938871e+00 1.0713299802124104e-01 0.0000000000000000e+00  8.9586306467202681e-01 -6.9284949582180355e-01 0.0000000000000000e+00  3.3917073204225678e-01 2.3256593173092893e-01 0.0000000000000000e+00  4.0622861340934696e-01 -3.9804975201768139e-01 0.0000000000000000e+00  1.3867658209499538e+00 3.3760444481225382e-01 0.0000000000000000e+00  1.3782962921116721e+00 -5.6183827044159873e-01 0.0000000000000000e+00  7.8578879745928554e-01 4.7614035504873004e-01 0.0000000000000000e+00  2.4741780656518197e+00 -2.4057593671873126e-01 0.0000000000000000e+00  1.599055740949