<?xml version="1.0"?>
<VTKFile type="UnstructuredGrid"  version="0.1"  >
<UnstructuredGrid>
<Piece  NumberOfPoints="2868" NumberOfCells="5400">
<Points>
<DataArray  type="Float64"  NumberOfComponents="3"  format="ascii">0.534923 0.326073 0  0.510642 0.314196 0  0.466125 0.293082 0  0.436448 0.281205 0  0.409468 0.275927 0  0.368998 0.270648 0  0.35281 0.275927 0  0.381139 0.302319 0  0.405421 0.326073 0  0.410817 0.33531 0  0.408119 0.349826 0  0.400025 0.357744 0  0.375743 0.368301 0  0.329878 0.392055 0  0.297502 0.432963 0  0.282663 0.476511 0  0.285361 0.524018 0  0.298851 0.572845 0  0.317737 0.6045160000000001 0  0.337972 0.6361869999999999 0  0.360904 0.674457 0  0.368998 0.69953 0  0.359555 0.7219640000000001 0  0.360904 0.757594 0  0.370347 0.766831 0  0.381139 0.762872 0  0.390582 0.741758 0  0.404072 0.720644 0  0.424307 0.707448 0  0.447239 0.702169 0  0.480964 0.704808 0  0.479615 0.6889729999999999 0  0.468823 0.675776 0  0.447239 0.6691780000000001 0  0.428354 0.6691780000000001 0  0.410817 0.6639 0  0.404072 0.653343 0  0.395978 0.628269 0  0.387884 0.59132 0  0.389233 0.576804 0  0.397327 0.557009 0  0.410817 0.547772 0  0.424307 0.546452 0  0.437797 0.55305 0  0.44589 0.5662469999999999 0  0.441843 0.582082 0  0.439145 0.5979179999999999 0  0.449937 0.609795 0  0.468823 0.603196 0  0.479615 0.59 0  0.489058 0.570205 0  0.494454 0.546452 0  0.505246 0.522699 0  0.522783 0.509502 0  0.55246 0.494986 0  0.586185 0.484429 0  0.615863 0.48047 0  0.64554 0.473872 0  0.6671240000000001 0.461995 0  0.683312 0.451438 0  0.696802 0.435603 0  0.703547 0.417128 0  0.7116400000000001 0.393374 0  0.7183850000000001 0.37226 0  0.7251300000000001 0.364342 0  0.739969 0.353785 0  0.7453650000000001 0.344548 0  0.7453650000000001 0.327393 0  0.737271 0.318155 0  0.7183850000000001 0.316835 0  0.7008490000000001 0.319475 0  0.677916 0.318155 0  0.650936 0.316835 0  0.610467 0.318155 0  0.57944 0.324753 0  0.559205 0.328712 0  0.5389699999999999 0.326073 0  1 1 0  1 0 0  0 0 0  0 1 0  0.532238 0.32476 0  0.528748 0.323052 0  0.52421 0.320833 0  0.518311 0.317947 0  0.503447 0.310783 0  0.494093 0.306347 0  0.481933 0.30058 0  0.452151 0.28749 0  0.392327 0.273691 0  0.379141 0.271971 0  0.360474 0.283066 0  0.369797 0.291752 0  0.391424 0.31238 0  0.399335 0.32012 0  0.40958 0.341964 0  0.393939 0.36039 0  0.386028 0.36383 0  0.364248 0.374254 0  0.349304 0.381994 0  0.315801 0.409841 0  0.292986 0.551616 0  0.350934 0.657818 0  0.360127 0.737055 0  0.360566 0.748664 0  0.385245 0.753692 0  0.396447 0.732578 0  0.466301 0.703661 0  0.459439 0.672908 0  0.418442 0.666195 0  0.400553 0.642441 0  0.39255 0.612619 0  0.389913 0.60058 0  0.392752 0.568197 0  0.444131 0.573132 0  0.458149 0.606926 0  0.5005540000000001 0.533026 0  0.571522 0.489019 0  0.632637 0.476741 0  0.689177 0.444553 0  0.708121 0.403702 0  0.715453 0.38144 0  0.732406 0.359166 0  0.7453650000000001 0.337089 0  0.72906 0.317581 0  0.629879 0.317522 0  0.59293 0.321884 0  0.568003 0.326991 0  0.55202 0.327775 0  0.546493 0.327054 0  0.542241 0.326499 0  1 0.9 0  1 0.8 0  1 0.7 0  1 0.6 0  1 0.5 0  1 0.4 0  1 0.3 0  1 0.2 0  1 0.1 0  0.9 0 0  0.8 0 0  0.7 0 0  0.6 0 0  0.5 0 0  0.4 0 0  0.3 0 0  0.2 0 0  0.1 0 0  0.1 1 0  0.2 1 0  0.3 1 0  0.4 1 0  0.5 1 0  0.6 1 0  0.7 1 0  0.8 1 0  0.9 1 0  0 0.1 0  0 0.2 0  0 0.3 0  0 0.4 0  0 0.5 0  0 0.6 0  0 0.7 0  0 0.8 0  0 0.9 0  0.535686 0.5031910000000001 0  0.753987 0.733359 0  0.167145 0.741436 0  0.173378 0.257204 0  0.733497 0.159862 0  0.554096 0.15788 0  0.849187 0.479053 0  0.488793 0.838452 0  0.138507 0.5592 0  0.30686 0.154944 0  0.348904 0.890523 0  0.058006 0.065099 0  0.06984899999999999 0.937917 0  0.93633 0.939704 0  0.934625 0.053613 0  0.343397 0.333452 0  0.473272 0.639943 0  0.433266 0.638072 0  0.415174 0.58269 0  0.533435 0.545042 0  0.390848 0.340652 0  0.53655 0.320242 0  0.127966 0.393775 0  0.83861 0.850455 0  0.635242 0.8551299999999999 0  0.852158 0.633441 0  0.653427 0.626848 0  0.861226 0.24292 0  0.166128 0.12976 0  0.216875 0.8698709999999999 0  0.458305 0.11179 0  0.84446 0.101633 0  0.202024 0.642528 0  0.644825 0.115855 0  0.671342 0.218358 0  0.251354 0.286186 0  0.262388 0.75153 0  0.063044 0.751571 0  0.068189 0.242962 0  0.435781 0.9053949999999999 0  0.934144 0.451133 0  0.568393 0.237622 0  0.814984 0.395506 0  0.752951 0.517227 0  0.456254 0.780699 0  0.073352 0.531116 0  0.337731 0.206071 0  0.363213 0.960371 0  0.330742 0.363592 0  0.516613 0.55705 0  0.369057 0.332992 0  0.500926 0.617309 0  0.498004 0.665534 0  0.412142 0.61178 0  0.454233 0.6366039999999999 0  0.422782 0.567496 0  0.541193 0.5214800000000001 0  0.439761 0.65557 0  0.5163 0.533672 0  0.414775 0.64562 0  0.40073 0.576135 0  0.430362 0.5880339999999999 0  0.385432 0.351492 0  0.400298 0.335397 0  0.398325 0.348194 0  0.528702 0.314885 0  0.540814 0.322334 0  0.534477 0.322953 0  0.619095 0.743583 0  0.885162 0.737972 0  0.08076 0.668849 0  0.90734 0.36634 0  0.09468699999999999 0.868937 0  0.759838 0.912152 0  0.901518 0.540898 0  0.747285 0.607479 0  0.229182 0.071641 0  0.06915399999999999 0.450091 0  0.244775 0.203309 0  0.076534 0.331755 0  0.897847 0.167826 0  0.578909 0.911415 0  0.07713299999999999 0.146341 0  0.477215 0.203448 0  0.922631 0.869341 0  0.517415 0.074785 0  0.297026 0.827793 0  0.7832710000000001 0.246505 0  0.74519 0.061079 0  0.36033 0.069068 0  0.210313 0.475228 0  0.859426 0.928758 0  0.5745479999999999 0.609182 0  0.243069 0.383398 0  0.283099 0.934598 0  0.417416 0.843141 0  0.643942 0.553164 0  0.112687 0.079336 0  0.281357 0.658386 0  0.765043 0.436177 0  0.611361 0.198486 0  0.234496 0.58911 0  0.206479 0.702638 0  0.679608 0.155818 0  0.62682 0.259978 0  0.690538 0.264164 0  0.448938 0.956308 0  0.808154 0.328403 0  0.379583 0.91913 0  0.308083 0.297769 0  0.312358 0.730249 0  0.563101 0.278576 0  0.435597 0.746198 0  0.385475 0.225229 0  0.572248 0.518034 0  0.357864 0.35422 0  0.497647 0.641694 0  0.458101 0.655768 0  0.360474 0.310727 0  0.467038 0.620139 0  0.47798 0.659909 0  0.41102 0.628072 0  0.48324 0.609015 0  0.427544 0.617941 0  0.388633 0.328253 0  0.405336 0.599404 0  0.408351 0.565178 0  0.42395 0.600985 0  0.431562 0.576523 0  0.424905 0.6551979999999999 0  0.398064 0.58782 0  0.427739 0.557934 0  0.5192909999999999 0.303443 0  0.53142 0.320293 0  0.5449000000000001 0.323642 0  0.537166 0.323513 0  0.153974 0.920841 0  0.9181859999999999 0.67343 0  0.759946 0.820588 0  0.5375259999999999 0.783091 0  0.816532 0.545843 0  0.813991 0.178083 0  0.836774 0.702023 0  0.149815 0.318856 0  0.662287 0.923338 0  0.680146 0.791192 0  0.708961 0.663172 0  0.9372779999999999 0.287318 0  0.574622 0.6881660000000001 0  0.5894740000000001 0.076262 0  0.502822 0.926683 0  0.222269 0.811068 0  0.380457 0.164786 0  0.15321 0.684154 0  0.458063 0.051413 0  0.161702 0.056026 0  0.199351 0.198818 0  0.298946 0.09553200000000001 0  0.902465 0.795949 0  0.121139 0.791477 0  0.906269 0.112287 0  0.056109 0.822332 0  0.512172 0.13237 0  0.940964 0.741805 0  0.888887 0.408777 0  0.354543 0.825964 0  0.808736 0.068638 0  0.068507 0.394071 0  0.719105 0.563843 0  0.247287 0.149664 0  0.293062 0.237128 0  0.240524 0.434997 0  0.141255 0.623289 0  0.945202 0.160621 0  0.502914 0.247629 0  0.144669 0.480811 0  0.665025 0.060817 0  0.728047 0.224344 0  0.861995 0.313312 0  0.200068 0.534235 0  0.253262 0.965623 0  0.893804 0.49307 0  0.604391 0.572456 0  0.947088 0.345347 0  0.439372 0.227307 0  0.629847 0.159823 0  0.273405 0.880181 0  0.302744 0.776823 0  0.781502 0.295365 0  0.275342 0.349602 0  0.7283849999999999 0.472798 0  0.229136 0.246478 0  0.807794 0.480346 0  0.709476 0.112786 0  0.275506 0.694991 0  0.771674 0.394419 0  0.449715 0.861802 0  0.419159 0.799696 0  0.674851 0.503139 0  0.280443 0.61016 0  0.572443 0.192538 0  0.393113 0.87525 0  0.405555 0.948428 0  0.330942 0.934103 0  0.540509 0.597101 0  0.312763 0.6689310000000001 0  0.254368 0.540179 0  0.595265 0.25915 0  0.606679 0.234099 0  0.657131 0.279138 0  0.722458 0.279478 0  0.333 0.308056 0  0.351529 0.246142 0  0.455714 0.7257940000000001 0  0.585239 0.295143 0  0.340062 0.72492 0  0.545593 0.293773 0  0.555449 0.545426 0  0.414311 0.737314 0  0.590854 0.502323 0  0.350507 0.368444 0  0.484423 0.625665 0  0.483899 0.674542 0  0.378137 0.317274 0  0.446416 0.646404 0  0.373532 0.347654 0  0.446876 0.619769 0  0.466106 0.666068 0  0.437545 0.609254 0  0.434988 0.565726 0  0.41462 0.656829 0  0.418803 0.556961 0  0.398425 0.327446 0  0.517803 0.310421 0  0.549516 0.322918 0  0.57701 0.842889 0  0.8291269999999999 0.773906 0  0.643235 0.684732 0  0.134281 0.207734 0  0.865997 0.055966 0  0.680959 0.723345 0  0.165229 0.8415550000000001 0  0.54558 0.959672 0  0.783726 0.656439 0  0.913315 0.595533 0  0.699439 0.860667 0  0.785839 0.125076 0  0.551673 0.037713 0  0.9200970000000001 0.223214 0  0.206406 0.299726 0  0.087064 0.596401 0  0.935644 0.394252 0  0.964557 0.252582 0  0.230124 0.928346 0  0.120579 0.271764 0  0.8572149999999999 0.524082 0  0.7670979999999999 0.5551469999999999 0  0.936094 0.507131 0  0.804064 0.59585 0  0.700565 0.608273 0  0.429773 0.174231 0  0.117746 0.727333 0  0.5389620000000001 0.730231 0  0.862761 0.359173 0  0.821444 0.284046 0  0.193552 0.35818 0  0.234923 0.505555 0  0.193209 0.421217 0  0.220144 0.755896 0  0.594015 0.131642 0  0.283813 0.195855 0  0.517519 0.213961 0  0.553509 0.639116 0  0.280391 0.378018 0  0.852183 0.436817 0  0.746983 0.197173 0  0.821806 0.221318 0  0.449853 0.828453 0  0.883758 0.453926 0  0.183484 0.589542 0  0.348384 0.129314 0  0.255254 0.838525 0  0.504849 0.798516 0  0.320344 0.863432 0  0.611669 0.525425 0  0.265864 0.804962 0  0.72056 0.521442 0  0.613372 0.6101220000000001 0  0.481262 0.881068 0  0.655778 0.191988 0  0.701921 0.196918 0  0.5658260000000001 0.5731810000000001 0  0.46914 0.240927 0  0.343219 0.173284 0  0.888786 0.278502 0  0.244113 0.6750930000000001 0  0.739546 0.417914 0  0.784023 0.355942 0  0.326805 0.265549 0  0.248616 0.6
[...]
<PointData  Vectors="f_21"> 
<DataArray  type="Float64"  Name="f_21"  NumberOfComponents="3" format="ascii">1.4342166494800930e+00 6.6354316403580493e-01 0.0000000000000000e+00  1.3739094588901968e+00 6.8303170264571267e-01 0.0000000000000000e+00  1.1903033848401166e+00 6.9267767637702804e-01 0.0000000000000000e+00  1.0365145463345986e+00 6.6949909553777442e-01 0.0000000000000000e+00  8.9311423613075092e-01 6.2283085894202805e-01 0.0000000000000000e+00  6.6608035231271634e-01 5.2767336262543119e-01 0.0000000000000000e+00  5.3266127757031545e-01 4.4053526986556907e-01 0.0000000000000000e+00  3.9757190097782930e-01 4.8873365446760492e-01 0.0000000000000000e+00  3.2628458534273874e-01 5.5163751474339318e-01 0.0000000000000000e+00  2.9816962302238637e-01 5.6810227418638892e-01 0.0000000000000000e+00  2.5273086202500217e-01 5.6003843113008667e-01 0.0000000000000000e+00  2.2730038880798481e-01 5.3490776123148887e-01 0.0000000000000000e+00  1.9009402194684935e-01 4.5759101879319458e-01 0.0000000000000000e+00  1.1557283076103034e-01 2.8588836761257175e-01 0.0000000000000000e+00  3.9556746561518800e-02 1.3133390682219998e-01 0.0000000000000000e+00  4.6705932644931598e-03 7.3257172444285788e-03 0.0000000000000000e+00  7.1907318118553804e-03 -1.0854009746804183e-01 0.0000000000000000e+00  3.8874499100655657e-02 -2.3403568439248157e-01 0.0000000000000000e+00  8.6116001957511012e-02 -3.4634741234649447e-01 0.0000000000000000e+00  1.5964453765916892e-01 -4.6479709349850279e-01 0.0000000000000000e+00  2.9012995936500169e-01 -6.0698415712186882e-01 0.0000000000000000e+00  3.9645184394549454e-01 -6.6224833059291266e-01 0.0000000000000000e+00  4.9861498022518735e-01 -6.4976013469281702e-01 0.0000000000000000e+00  8.0780593500960307e-01 -7.2462050753131468e-01 0.0000000000000000e+00  1.0625533516933559e+00 -8.1631275734660702e-01 0.0000000000000000e+00  1.2698831248550952e+00 -8.5136145823407505e-01 0.0000000000000000e+00  1.5843203196689848e+00 -8.5714004235393082e-01 0.0000000000000000e+00  1.7378473700695602e+00 -8.0037014098450154e-01 0.0000000000000000e+00  1.8035931045053040e+00 -7.3677006046567717e-01 0.0000000000000000e+00  1.8387877252023745e+00 -6.9724695673992476e-01 0.0000000000000000e+00  1.9716741465521477e+00 -7.4852786313596009e-01 0.0000000000000000e+00  2.1741280957200240e+00 -8.1735552054756744e-01 0.0000000000000000e+00  2.2774294781953239e+00 -8.9903059261253671e-01 0.0000000000000000e+00  2.3124929162579928e+00 -1.0437395330442969e+00 0.0000000000000000e+00  2.3040607463416198e+00 -1.1817566469121694e+00 0.0000000000000000e+00  2.3397409056789522e+00 -1.3130821571249858e+00 0.0000000000000000e+00  2.4158510295031839e+00 -1.3640848750759365e+00 0.0000000000000000e+00  2.5994771364226330e+00 -1.4341197299718151e+00 0.0000000000000000e+00  2.8936385182582698e+00 -1.5126539428857471e+00 0.0000000000000000e+00  3.0132299184292082e+00 -1.5036622694658874e+00 0.0000000000000000e+00  3.1766339853282197e+00 -1.4387218017165133e+00 0.0000000000000000e+00  3.2529113577930597e+00 -1.3284091395191500e+00 0.0000000000000000e+00  3.2640300995323601e+00 -1.2176665950808798e+00 0.0000000000000000e+00  3.2098756224889340e+00 -1.1063274553227809e+00 0.0000000000000000e+00  3.1004454321499706e+00 -1.0388805898625209e+00 0.0000000000000000e+00  2.9678005039399595e+00 -1.0723688572972851e+00 0.0000000000000000e+00  2.8316506864648829e+00 -1.0973560457933054e+00 0.0000000000000000e+00  2.7173192740179606e+00 -1.0175723564766102e+00 0.0000000000000000e+00  2.7242436015707061e+00 -8.8689452797416923e-01 0.0000000000000000e+00  2.7684329836655133e+00 -8.1761156402133228e-01 0.0000000000000000e+00  2.8379071818371271e+00 -7.6132905262063333e-01 0.0000000000000000e+00  2.9230944654934712e+00 -7.3139325483661433e-01 0.0000000000000000e+00  3.0105270087243237e+00 -6.8603788892893669e-01 0.0000000000000000e+00  3.0592738058933926e+00 -6.1541777956339871e-01 0.0000000000000000e+00  3.1097328594970035e+00 -4.9311661016473374e-01 0.0000000000000000e+00  3.1400741176740081e+00 -3.5133606078730095e-01 0.0000000000000000e+00  3.1373250037394205e+00 -2.2106344867942410e-01 0.0000000000000000e+00  3.1241103558097492e+00 -7.8064414704554275e-02 0.0000000000000000e+00  3.1130638889828166e+00 3.1138789059693164e-02 0.0000000000000000e+00  3.0880831265776409e+00 1.2810178156359395e-01 0.0000000000000000e+00  3.0447390760988013e+00 2.2534295489918515e-01 0.0000000000000000e+00  2.9805231961349699e+00 2.9846702780632062e-01 0.0000000000000000e+00  2.8937236728081639e+00 3.6229599860792500e-01 0.0000000000000000e+00  2.8137051135974747e+00 3.9028249238163942e-01 0.0000000000000000e+00  2.7888640581569000e+00 3.8982930976421593e-01 0.0000000000000000e+00  2.7317616856814393e+00 4.1882018556802431e-01 0.0000000000000000e+00  2.6498976105878267e+00 4.5328254938446089e-01 0.0000000000000000e+00  2.4467329329396823e+00 5.1375133722258792e-01 0.0000000000000000e+00  2.2750019391856915e+00 5.6324003944015366e-01 0.0000000000000000e+00  2.1077929323467894e+00 5.9365983942027223e-01 0.0000000000000000e+00  2.0157827674846538e+00 6.1003684338122965e-01 0.0000000000000000e+00  1.9138461158523659e+00 6.4202999132365512e-01 0.0000000000000000e+00  1.7859193669047195e+00 6.7109158722555018e-01 0.0000000000000000e+00  1.6077291209251086e+00 6.8462750146033968e-01 0.0000000000000000e+00  1.5009526164833285e+00 6.6776737206320835e-01 0.0000000000000000e+00  1.4643121916474799e+00 6.5834250218288015e-01 0.0000000000000000e+00  1.4378563259654040e+00 6.6183187114036379e-01 0.0000000000000000e+00  1.7544681769526274e+00 6.4360995316002800e-01 0.0000000000000000e+00  1.3764093108452722e+00 -2.5761196793264846e-01 0.0000000000000000e+00  0.0000000000000000e+00 0.0000000000000000e+00 0.0000000000000000e+00  0.0000000000000000e+00 0.0000000000000000e+00 0.0000000000000000e+00  1.4306244516663145e+00 6.6587776140805233e-01 0.0000000000000000e+00  1.4239249044954287e+00 6.6892563490661250e-01 0.0000000000000000e+00  1.4133512212538768e+00 6.7278640239271115e-01 0.0000000000000000e+00  1.3976034202782701e+00 6.7759807181273202e-01 0.0000000000000000e+00  1.3494968712810707e+00 6.8694155468876772e-01 0.0000000000000000e+00  1.3145890683436021e+00 6.9128570191735861e-01 0.0000000000000000e+00  1.2650061369442620e+00 6.9360567583649491e-01 0.0000000000000000e+00  1.1221032241703963e+00 6.8515767508518677e-01 0.0000000000000000e+00  8.0597691757167655e-01 5.8428063347876780e-01 0.0000000000000000e+00  7.3563504817137826e-01 5.5455985712423106e-01 0.0000000000000000e+00  4.7619014103399027e-01 4.5229119753545977e-01 0.0000000000000000e+00  4.3461424122119824e-01 4.6653215488950545e-01 0.0000000000000000e+00  3.6680068494633844e-01 5.1267649837794182e-01 0.0000000000000000e+00  3.4390322369725262e-01 5.3398007466702213e-01 0.0000000000000000e+00  2.7752805722626828e-01 5.6442757714266956e-01 0.0000000000000000e+00  2.1845051973483945e-01 5.1593119602998494e-01 0.0000000000000000e+00  2.0637239533827753e-01 4.9104955507050418e-01 0.0000000000000000e+00  1.6915086300641688e-01 4.1799012774164507e-01 0.0000000000000000e+00  1.4344850855315133e-01 3.6335290394576564e-01 0.0000000000000000e+00  7.6577148156901281e-02 2.2046917010982400e-01 0.0000000000000000e+00  2.2005718705699201e-02 -1.7702455254181712e-01 0.0000000000000000e+00  2.2698468485649165e-01 -5.4548761678869284e-01 0.0000000000000000e+00  5.9413286260545206e-01 -6.8537504573840746e-01 0.0000000000000000e+00  6.9366292192735168e-01 -7.1301338125979319e-01 0.0000000000000000e+00  1.4512019466517556e+00 -8.7099663560718998e-01 0.0000000000000000e+00  1.6617186615092452e+00 -8.3168495617600624e-01 0.0000000000000000e+00  1.8806313764908449e+00 -6.9764242567075041e-01 0.0000000000000000e+00  2.2937616184062057e+00 -9.6056651914585323e-01 0.0000000000000000e+00  2.3236578912475538e+00 -1.2559473955742151e+00 0.0000000000000000e+00  2.4943864357812049e+00 -1.3931413180196959e+00 0.0000000000000000e+00  2.7203183880140118e+00 -1.4678600751090403e+00 0.0000000000000000e+00  2.8175186768216980e+00 -1.4938012316936684e+00 0.0000000000000000e+00  3.0843026985639366e+00 -1.4756442883661984e+00 0.0000000000000000e+00  3.0429868658882251e+00 -1.0533937180374404e+00 0.0000000000000000e+00  2.7207808752392579e+00 -9.5929743885972851e-01 0.0000000000000000e+00  2.9720169646759227e+00 -7.0530000203104215e-01 0.0000000000000000e+00  3.1272184761614072e+00 -4.1360229766307810e-01 0.0000000000000000e+00  3.1335362135016069e+00 -1.4260542725060557e-01 0.0000000000000000e+00  3.0712905647798201e+00 1.7212790888856616e-01 0.0000000000000000e+00  2.9325825934788079e+00 3.3811161389943045e-01 0.0000000000000000e+00  2.8470414570841269e+00 3.8299205200869779e-01 0.0000000000000000e+00  2.7655691110372476e+00 3.9781076732648490e-01 0.0000000000000000e+00  2.5694849109948872e+00 4.9434641567456233e-01 0.0000000000000000e+00  2.1929594083959048e+00 5.7653469295072812e-01 0.0000000000000000e+00  1.6901447476890652e+00 6.8066659934594798e-01 0.0000000000000000e+00  1.5393643332292002e+00 6.7617155187117706e-01 0.0000000000000000e+00  1.4769221050683234e+00 6.6146008505306575e-01 0.0000000000000000e+00  1.4562637983106514e+00 6.5853170978903575e-01 0.0000000000000000e+00  1.4485260091089220e+00 6.5969623136099209e-01 0.0000000000000000e+00  1.4424493401234972e+00 6.6079259929149814e-01 0.0000000000000000e+00  2.1289997591468155e+00 6.6042721181271202e-01 0.0000000000000000e+00  2.5043104001001844e+00 6.3711958290602833e-01 0.0000000000000000e+00  2.8464268944928026e+00 5.4646698726366316e-01 0.0000000000000000e+00  3.0893753721859181e+00 3.8350971906012543e-01 0.0000000000000000e+00  3.1406144315602043e+00 1.4563707987745941e-01 0.0000000000000000e+00  2.9775592025164586e+00 -8.6521264634735764e-02 0.0000000000000000e+00  2.6236968659651074e+00 -2.4626522524600736e-01 0.0000000000000000e+00  2.1906657624079471e+00 -2.8976072452419011e-01 0.0000000000000000e+00  1.7802826919336212e+00 -2.7880395305738320e-01 0.0000000000000000e+00  1.3012310018444244e+00 1.5617036404785342e-01 0.0000000000000000e+00  1.2709561638024587e+00 5.2278224816939711e-01 0.0000000000000000e+00  1.2564262444351144e+00 7.7812069202606726e-01 0.0000000000000000e+00  1.2404390169603321e+00 9.1549307793373191e-01 0.0000000000000000e+00  1.2011844865528436e+00 9.0684214798878926e-01 0.0000000000000000e+00  1.1024002685849736e+00 7.7037263580602988e-01 0.0000000000000000e+00  9.1529212100940671e-01 5.6915955985545663e-01 0.0000000000000000e+00  6.5819476577158875e-01 3.6858896450376671e-01 0.0000000000000000e+00  3.5879193179352054e-01 2.0110088666026588e-01 0.0000000000000000e+00  4.3462999045648548e-01 -2.4248345126456858e-01 0.0000000000000000e+00  7.8873712844812383e-01 -4.4693679765354766e-01 0.0000000000000000e+00  1.0591375582769589e+00 -6.9445772265644856e-01 0.0000000000000000e+00  1.1954615243345650e+00 -8.5770915632275679e-01 0.0000000000000000e+00  1.2724262274842864e+00 -8.1010183866212859e-01 0.0000000000000000e+00  1.3697156112080744e+00 -6.1564468198698785e-01 0.0000000000000000e+00  1.4819385262112525e+00 -3.5133026513877214e-01 0.0000000000000000e+00  1.5872553888107019e+00 -5.4622920270356631e-02 0.0000000000000000e+00  1.6719431566622101e+00 2.7836625146041921e-01 0.0000000000000000e+00  0.0000000000000000e+00 0.0000000000000000e+00 0.0000000000000000e+00  0.0000000000000000e+00 0.0000000000000000e+00 0.0000000000000000e+00  0.0000000000000000e+00 0.0000000000000000e+00 0.0000000000000000e+00  0.0000000000000000e+00 0.0000000000000000e+00 0.0000000000000000e+00  0.0000000000000000e+00 0.0000000000000000e+00 0.0000000000000000e+00  0.0000000000000000e+00 0.0000000000000000e+00 0.0000000000000000e+00  0.0000000000000000e+00 0.0000000000000000e+00 0.0000000000000000e+00  0.0000000000000000e+00 0.0000000000000000e+00 0.0000000000000000e+00  0.0000000000000000e+00 0.0000000000000000e+00 0.0000000000000000e+00  3.0816219084729224e+00 -5.6238032067344856e-01 0.0000000000000000e+00  2.4435253601447156e+00 -7.8660182564699033e-03 0.0000000000000000e+00  2.7931184845615670e-01 -8.8983911149623493e-02 0.0000000000000000e+00  2.4626229547904879e-01 7.0657463995627695e-02 0.0000000000000000e+00  1.6601421233796207e+00 6.6028376087131280e-01 0.0000000000000000e+00  1.2996824908307310e+00 8.4963470538225860e-01 0.0000000000000000e+00  3.0865685719758416e+00 2.1293873435786487e-01 0.0000000000000000e+00  1.4691258261288576e+00 -7.4301732908486595e-01 0.0000000000000000e+00  1.6211512483102212e-02 -1.3944851439688027e-02 0.0000000000000000e+00  7.2080640517120420e-01 4.5236133244355986e-01 0.0000000000000000e+00  1.0619084156540484e+00 -7.3941317414146257e-01 0.0000000000000000e+00  1.5370016388342600e-01 6.9350215138237428e-02 0.0000000000000000e+00  2.3145600083441217e-01 -1.0965856612261794e-01 0.0000000000000000e+00  1.9230958984053692e+00 4.2242093176587547e-01 0.0000000000000000e+00  1.5380697964849919e+00 1.2904850676947147e-03 0.0000000000000000e+00  2.8905039934325222e-01 3.6123428713408645e-01 0.0000000000000000e+00  2.5125735115904893e+00 -8.6480885104416239e-01 0.0000000000000000e+00  2.5242920415637347e+00 -1.1427850810689186e+00 0.0000000000000000e+00  2.9628723882162293e+00 -1.2921111130063729e+00 0.0000000000000000e+00  2.9259849397261690e+00 -5.7204214957858435e-01 0.0000000000000000e+00  2.8099766495247869e-01 5.0745741889244378e-01 0.0000000000000000e+00  1.4287105925788455e+00 6.6503865612991375e-01 0.0000000000000000e+00  3.8929156841519742e-02 -2.1853108703056234e-02 0.0000000000000000e+00  2.1498638745634953e+00 1.2522129038198176e-01 0.0000000000000000e+00  1.7788124412636934e+00 -4.3422294726394906e-01 0.0000000000000000e+00  2.9172353682241905e+00 2.3249745833411567e-01 0.0000000000000000e+00  2.6686414331409858e+00 -1.4889181987412980e-01 0.0000000000000000e+00  2.2142738558747324e+00 2.0488922107533758e-01 0.0000000000000000e+00  3.8798299660285918e-01 1.7876332683878043e-01 0.0000000000000000e+00  6.3561376836275629e-01 -3.4124636264480296e-01 0.0000000000000000e+00  1.0892428389551403e+00 8.1222088119251268e-01 0.0000000000000000e+00  1.6347278644591061e+00 3.4453304410119839e-01 0.0000000000000000e+00  1.2881342881011149e-01 -8.4472444871029478e-02 0.0000000000000000e+00  1.4212661389040691e+00 8.3656518899797516e-01 0.0000000000000000e+00  1.6794402453279256e+00 7.4897310179659793e-01 0.0000000000000000e+00  3.2587975221725018e-01 1.6012524404245232e-01 0.0000000000000000e+00  5.0896349237101857e-01 -2.8870019067037456e-01 0.0000000000000000e+00  1.0180184038464798e-01 1.3820937717666378e-03 0.0000000000000000e+00  9.2405414762772115e-02 -2.9390961378635435e-03 0.0000000000000000e+00  1.2539664639974006e+00 -8.2916177877561492e-01 0.0000000000000000e+00  3.0718301418474736e+00 1.1957807735031144e-01 0.0000000000000000e+00  1.4211697786191679e+00 7.6659596719696521e-01 0.0000000000000000e+00  2.9145880573198331e+00 2.3178186983555010e-01 0.0000000000000000e+00  3.0450750310651977e+00 1.9102461985794053e-01 0.0000000000000000e+00  1.5356177786809702e+00 -7.4150608946051710e-01 0.0000000000000000e+00  7.3383141343429303e-03 1.7240360867432035e-03 0.0000000000000000e+00  7.3446397624374149e-01 4.8526665043358064e-01 0.0000000000000000e+00  1.1183134257369094e+00 -7.9389962220918220e-01 0.0000000000000000e+00  1.9809040153650342e-01 3.0156956414584096e-01 0.0000000000000000e+00  2.8843189035983383e+00 -6.4338983725431598e-01 0.0000000000000000e+00  3.0081026528360583e-01 4.4377171978350888e-01 0.0000000000000000e+00  2.6378187598736820e+00 -7.1256691393062521e-01 0.0000000000000000e+00  2.3503306386711968e+00 -7.1283197920490016e-01 0.0000000000000000e+00  2.7239855485594853e+00 -1.3115936493444562e+00 0.0000000000000000e+00  2.5336578405575394e+00 -9.8900522288055515e-01 0.0000000000000000e+00  3.0898647242101855e+00 -1.2302391880898584e+00 0.0000000000000000e+00  3.0113410912784446e+00 -5.3943480323244786e-01 0.0000000000000000e+00  2.4038950725835107e+00 -1.0958520263490503e+00 0.0000000000000000e+00  2.9691451906980797e+00 -6.4261179149038927e-01 0.0000000000000000e+00  2.4711625300232507e+00 -1.2843816186689379e+00 0.0000000000000000e+00  3.0182750973479018e+00 -1.4098362356499052e+00 0.0000000000000000e+00  2.9170144803373561e+00 -1.1684886104740637e+00 0.0000000000000000e+00  2.4637911549096703e-01 4.8979694494628800e-01 0.0000000000000000e+00  2.9788100687888291e-01 5.3609697287805724e-01 0.0000000000000000e+00  2.5772428674478320e-01 5.2970957862705459e-01 0.0000000000000000e+00  1.4070000269626970e+00 6.7178736193006083e-01 0.0000000000000000e+00  1.4372039342585179e+00 6.6290013428847017e-01 0.0000000000000000e+00  1.4298022626060893e+00 6.6471409135432225e-01 0.0000000000000000e+00  2.1284684123287598e+00 -3.5674386073121539e-01 0.0000000000000000e+00  2.6280252302880007e+00 2.8160208249436031e-01 0.0000000000000000e+00  7.1438749650362246e-02 1.3813296372602205e-02 0.0000000000000000e+00  2.8324141632997564e+00 7.5007942579316547e-02 0.0000000000000000e+00  2.5593287910311402e-01 -9.2382846421562789e-02 0.0000000000000000e+00  1.8210594507049824e+00 -1.3831517715886424e-01 0.0000000000000000e+00  3.1081552969558603e+00 2.3477270431482183e-01 0.0000000000000000e+00  2.8541910207179955e+00 9.6062370609264772e-02 0.0000000000000000e+00  6.2451484985616112e-01 3.5842611028877697e-01 0.0000000000000000e+00  6.9028033618194692e-03 -1.4348233932077995e-02 0.0000000000000000e+00  4.8705589082241724e-01 2.4511885218256882e-01 0.0000000000000000e+00  5.4089466451272279e-02 -2.2257304813898433e-02 0.0000000000000000e+00  1.9502227595389616e+00 1.1780414923275351e-01 0.0000000000000000e+00  1.5278873541539437e+00 -6.1740284022394620e-01 0.0000000000000000e+00  1.5828302746667364e-01 4.4136456100559059e-02 0.0000000000000000e+00  1.1209822793089217e+00 7.7487124399067620e-01 0.0000000000000000e+00  2.1772521928498154e+00 3.8374327167674543e-01 0.0000000000000000e+00  1.1944076148912530e+00 8.9086895390022125e-01 0.0000000000000000e+00  8.5367282945318324e-01 -5.2174323776714571e-01 0.0000000000000000e+00  2.0513672918252648e+00 4.5272881828945921e-01 0.0000000000000000e+00  1.4157401111195922e+00 6.6608066145856137e-01 0.0000000000000000e+00  9.3584599561819604e-01 6.5100299773583137e-01 0.0000000000000000e+00  -7.5329814596577999e-03 -2.6232775678934117e-02 0.0000000000000000e+00  1.8880912162933019e+00 1.5993338451426511e-01 0.0000000000000000e+00  2.6746640086899678e+00 -4.0256355837643187e-01 0.0000000000000000e+00  1.0521849044379535e-01 6.1993080648022676e-02 0.0000000000000000e+00  9.1600336930794612e-01 -5.9879558942395317e-01 0.0000000000000000e+00  1.2515404979940630e+00 -8.1848467939581648e-01 0.0000000000000000e+00  2.9003426542229502e+00 -1.2207874973258324e-01 0.0000000000000000e+00  2.9669705384351158e-01 1.4258841195475483e-01 0.0000000000000000e+00  2.0886862369410647e-01 -2.6787189730543226e-01 0.0000000000000000e+00  3.0305703970133662e+00 2.6475204492051929e-01 0.0000000000000000e+00  1.4893828341593705e+00 8.0749293010588075e-01 0.0000000000000000e+00  4.9028976664526033e-02 -1.1057152872751271e-01 0.0000000000000000e+00  2.6114471343248802e-01 -1.2228691514521443e-01 0.0000000000000000e+00  1.5560059092903056e+00 7.7132386701132316e-01 0.0000000000000000e+00  1.6322279170933907e+00 7.4653299864697176e-01 0.0000000000000000e+00  1.8467945020824417e+00 6.9329869428047619e-01 0.0000000000000000e+00  1.2511747511468043e+00 -8.3836270278808955e-01 0.0000000000000000e+00  2.5678901528363189e+00 2.6470157274076855e-01 0.0000000000000000e+00  1.1353843707535498e+00 -8.0317867544630228e-01 0.0000000000000000e+00  3.7506354673533754e-01 2.7630546243143544e-01 0.0000000000000000e+00  5.1230687913601280e-01 -4.2430099051812287e-01 0.0000000000000000e+00  1.4515366469143265e+00 7.1130313099543729e-01 0.0000000000000000e+00  1.6398187042715116e+00 -7.2924178476770030e-01 0.0000000000000000e+00  8.4461019477866928e-01 6.1789909863932424e-01 0.0000000000000000e+00  3.0171521566880948e+00 -4.0846721415856274e-01 0.0000000000000000e+00  2.3338009923731484e-01 3.