<?xml version="1.0"?>
<VTKFile type="UnstructuredGrid"  version="0.1"  >
<UnstructuredGrid>
<Piece  NumberOfPoints="2868" NumberOfCells="5400">
<Points>
<DataArray  type="Float64"  NumberOfComponents="3"  format="ascii">0.534923 0.326073 0  0.510642 0.314196 0  0.466125 0.293082 0  0.436448 0.281205 0  0.409468 0.275927 0  0.368998 0.270648 0  0.35281 0.275927 0  0.381139 0.302319 0  0.405421 0.326073 0  0.410817 0.33531 0  0.408119 0.349826 0  0.400025 0.357744 0  0.375743 0.368301 0  0.329878 0.392055 0  0.297502 0.432963 0  0.282663 0.476511 0  0.285361 0.524018 0  0.298851 0.572845 0  0.317737 0.6045160000000001 0  0.337972 0.6361869999999999 0  0.360904 0.674457 0  0.368998 0.69953 0  0.359555 0.7219640000000001 0  0.360904 0.757594 0  0.370347 0.766831 0  0.381139 0.762872 0  0.390582 0.741758 0  0.404072 0.720644 0  0.424307 0.707448 0  0.447239 0.702169 0  0.480964 0.704808 0  0.479615 0.6889729999999999 0  0.468823 0.675776 0  0.447239 0.6691780000000001 0  0.428354 0.6691780000000001 0  0.410817 0.6639 0  0.404072 0.653343 0  0.395978 0.628269 0  0.387884 0.59132 0  0.389233 0.576804 0  0.397327 0.557009 0  0.410817 0.547772 0  0.424307 0.546452 0  0.437797 0.55305 0  0.44589 0.5662469999999999 0  0.441843 0.582082 0  0.439145 0.5979179999999999 0  0.449937 0.609795 0  0.468823 0.603196 0  0.479615 0.59 0  0.489058 0.570205 0  0.494454 0.546452 0  0.505246 0.522699 0  0.522783 0.509502 0  0.55246 0.494986 0  0.586185 0.484429 0  0.615863 0.48047 0  0.64554 0.473872 0  0.6671240000000001 0.461995 0  0.683312 0.451438 0  0.696802 0.435603 0  0.703547 0.417128 0  0.7116400000000001 0.393374 0  0.7183850000000001 0.37226 0  0.7251300000000001 0.364342 0  0.739969 0.353785 0  0.7453650000000001 0.344548 0  0.7453650000000001 0.327393 0  0.737271 0.318155 0  0.7183850000000001 0.316835 0  0.7008490000000001 0.319475 0  0.677916 0.318155 0  0.650936 0.316835 0  0.610467 0.318155 0  0.57944 0.324753 0  0.559205 0.328712 0  0.5389699999999999 0.326073 0  1 1 0  1 0 0  0 0 0  0 1 0  0.532238 0.32476 0  0.528748 0.323052 0  0.52421 0.320833 0  0.518311 0.317947 0  0.503447 0.310783 0  0.494093 0.306347 0  0.481933 0.30058 0  0.452151 0.28749 0  0.392327 0.273691 0  0.379141 0.271971 0  0.360474 0.283066 0  0.369797 0.291752 0  0.391424 0.31238 0  0.399335 0.32012 0  0.40958 0.341964 0  0.393939 0.36039 0  0.386028 0.36383 0  0.364248 0.374254 0  0.349304 0.381994 0  0.315801 0.409841 0  0.292986 0.551616 0  0.350934 0.657818 0  0.360127 0.737055 0  0.360566 0.748664 0  0.385245 0.753692 0  0.396447 0.732578 0  0.466301 0.703661 0  0.459439 0.672908 0  0.418442 0.666195 0  0.400553 0.642441 0  0.39255 0.612619 0  0.389913 0.60058 0  0.392752 0.568197 0  0.444131 0.573132 0  0.458149 0.606926 0  0.5005540000000001 0.533026 0  0.571522 0.489019 0  0.632637 0.476741 0  0.689177 0.444553 0  0.708121 0.403702 0  0.715453 0.38144 0  0.732406 0.359166 0  0.7453650000000001 0.337089 0  0.72906 0.317581 0  0.629879 0.317522 0  0.59293 0.321884 0  0.568003 0.326991 0  0.55202 0.327775 0  0.546493 0.327054 0  0.542241 0.326499 0  1 0.9 0  1 0.8 0  1 0.7 0  1 0.6 0  1 0.5 0  1 0.4 0  1 0.3 0  1 0.2 0  1 0.1 0  0.9 0 0  0.8 0 0  0.7 0 0  0.6 0 0  0.5 0 0  0.4 0 0  0.3 0 0  0.2 0 0  0.1 0 0  0.1 1 0  0.2 1 0  0.3 1 0  0.4 1 0  0.5 1 0  0.6 1 0  0.7 1 0  0.8 1 0  0.9 1 0  0 0.1 0  0 0.2 0  0 0.3 0  0 0.4 0  0 0.5 0  0 0.6 0  0 0.7 0  0 0.8 0  0 0.9 0  0.535686 0.5031910000000001 0  0.753987 0.733359 0  0.167145 0.741436 0  0.173378 0.257204 0  0.733497 0.159862 0  0.554096 0.15788 0  0.849187 0.479053 0  0.488793 0.838452 0  0.138507 0.5592 0  0.30686 0.154944 0  0.348904 0.890523 0  0.058006 0.065099 0  0.06984899999999999 0.937917 0  0.93633 0.939704 0  0.934625 0.053613 0  0.343397 0.333452 0  0.473272 0.639943 0  0.433266 0.638072 0  0.415174 0.58269 0  0.533435 0.545042 0  0.390848 0.340652 0  0.53655 0.320242 0  0.127966 0.393775 0  0.83861 0.850455 0  0.635242 0.8551299999999999 0  0.852158 0.633441 0  0.653427 0.626848 0  0.861226 0.24292 0  0.166128 0.12976 0  0.216875 0.8698709999999999 0  0.458305 0.11179 0  0.84446 0.101633 0  0.202024 0.642528 0  0.644825 0.115855 0  0.671342 0.218358 0  0.251354 0.286186 0  0.262388 0.75153 0  0.063044 0.751571 0  0.068189 0.242962 0  0.435781 0.9053949999999999 0  0.934144 0.451133 0  0.568393 0.237622 0  0.814984 0.395506 0  0.752951 0.517227 0  0.456254 0.780699 0  0.073352 0.531116 0  0.337731 0.206071 0  0.363213 0.960371 0  0.330742 0.363592 0  0.516613 0.55705 0  0.369057 0.332992 0  0.500926 0.617309 0  0.498004 0.665534 0  0.412142 0.61178 0  0.454233 0.6366039999999999 0  0.422782 0.567496 0  0.541193 0.5214800000000001 0  0.439761 0.65557 0  0.5163 0.533672 0  0.414775 0.64562 0  0.40073 0.576135 0  0.430362 0.5880339999999999 0  0.385432 0.351492 0  0.400298 0.335397 0  0.398325 0.348194 0  0.528702 0.314885 0  0.540814 0.322334 0  0.534477 0.322953 0  0.619095 0.743583 0  0.885162 0.737972 0  0.08076 0.668849 0  0.90734 0.36634 0  0.09468699999999999 0.868937 0  0.759838 0.912152 0  0.901518 0.540898 0  0.747285 0.607479 0  0.229182 0.071641 0  0.06915399999999999 0.450091 0  0.244775 0.203309 0  0.076534 0.331755 0  0.897847 0.167826 0  0.578909 0.911415 0  0.07713299999999999 0.146341 0  0.477215 0.203448 0  0.922631 0.869341 0  0.517415 0.074785 0  0.297026 0.827793 0  0.7832710000000001 0.246505 0  0.74519 0.061079 0  0.36033 0.069068 0  0.210313 0.475228 0  0.859426 0.928758 0  0.5745479999999999 0.609182 0  0.243069 0.383398 0  0.283099 0.934598 0  0.417416 0.843141 0  0.643942 0.553164 0  0.112687 0.079336 0  0.281357 0.658386 0  0.765043 0.436177 0  0.611361 0.198486 0  0.234496 0.58911 0  0.206479 0.702638 0  0.679608 0.155818 0  0.62682 0.259978 0  0.690538 0.264164 0  0.448938 0.956308 0  0.808154 0.328403 0  0.379583 0.91913 0  0.308083 0.297769 0  0.312358 0.730249 0  0.563101 0.278576 0  0.435597 0.746198 0  0.385475 0.225229 0  0.572248 0.518034 0  0.357864 0.35422 0  0.497647 0.641694 0  0.458101 0.655768 0  0.360474 0.310727 0  0.467038 0.620139 0  0.47798 0.659909 0  0.41102 0.628072 0  0.48324 0.609015 0  0.427544 0.617941 0  0.388633 0.328253 0  0.405336 0.599404 0  0.408351 0.565178 0  0.42395 0.600985 0  0.431562 0.576523 0  0.424905 0.6551979999999999 0  0.398064 0.58782 0  0.427739 0.557934 0  0.5192909999999999 0.303443 0  0.53142 0.320293 0  0.5449000000000001 0.323642 0  0.537166 0.323513 0  0.153974 0.920841 0  0.9181859999999999 0.67343 0  0.759946 0.820588 0  0.5375259999999999 0.783091 0  0.816532 0.545843 0  0.813991 0.178083 0  0.836774 0.702023 0  0.149815 0.318856 0  0.662287 0.923338 0  0.680146 0.791192 0  0.708961 0.663172 0  0.9372779999999999 0.287318 0  0.574622 0.6881660000000001 0  0.5894740000000001 0.076262 0  0.502822 0.926683 0  0.222269 0.811068 0  0.380457 0.164786 0  0.15321 0.684154 0  0.458063 0.051413 0  0.161702 0.056026 0  0.199351 0.198818 0  0.298946 0.09553200000000001 0  0.902465 0.795949 0  0.121139 0.791477 0  0.906269 0.112287 0  0.056109 0.822332 0  0.512172 0.13237 0  0.940964 0.741805 0  0.888887 0.408777 0  0.354543 0.825964 0  0.808736 0.068638 0  0.068507 0.394071 0  0.719105 0.563843 0  0.247287 0.149664 0  0.293062 0.237128 0  0.240524 0.434997 0  0.141255 0.623289 0  0.945202 0.160621 0  0.502914 0.247629 0  0.144669 0.480811 0  0.665025 0.060817 0  0.728047 0.224344 0  0.861995 0.313312 0  0.200068 0.534235 0  0.253262 0.965623 0  0.893804 0.49307 0  0.604391 0.572456 0  0.947088 0.345347 0  0.439372 0.227307 0  0.629847 0.159823 0  0.273405 0.880181 0  0.302744 0.776823 0  0.781502 0.295365 0  0.275342 0.349602 0  0.7283849999999999 0.472798 0  0.229136 0.246478 0  0.807794 0.480346 0  0.709476 0.112786 0  0.275506 0.694991 0  0.771674 0.394419 0  0.449715 0.861802 0  0.419159 0.799696 0  0.674851 0.503139 0  0.280443 0.61016 0  0.572443 0.192538 0  0.393113 0.87525 0  0.405555 0.948428 0  0.330942 0.934103 0  0.540509 0.597101 0  0.312763 0.6689310000000001 0  0.254368 0.540179 0  0.595265 0.25915 0  0.606679 0.234099 0  0.657131 0.279138 0  0.722458 0.279478 0  0.333 0.308056 0  0.351529 0.246142 0  0.455714 0.7257940000000001 0  0.585239 0.295143 0  0.340062 0.72492 0  0.545593 0.293773 0  0.555449 0.545426 0  0.414311 0.737314 0  0.590854 0.502323 0  0.350507 0.368444 0  0.484423 0.625665 0  0.483899 0.674542 0  0.378137 0.317274 0  0.446416 0.646404 0  0.373532 0.347654 0  0.446876 0.619769 0  0.466106 0.666068 0  0.437545 0.609254 0  0.434988 0.565726 0  0.41462 0.656829 0  0.418803 0.556961 0  0.398425 0.327446 0  0.517803 0.310421 0  0.549516 0.322918 0  0.57701 0.842889 0  0.8291269999999999 0.773906 0  0.643235 0.684732 0  0.134281 0.207734 0  0.865997 0.055966 0  0.680959 0.723345 0  0.165229 0.8415550000000001 0  0.54558 0.959672 0  0.783726 0.656439 0  0.913315 0.595533 0  0.699439 0.860667 0  0.785839 0.125076 0  0.551673 0.037713 0  0.9200970000000001 0.223214 0  0.206406 0.299726 0  0.087064 0.596401 0  0.935644 0.394252 0  0.964557 0.252582 0  0.230124 0.928346 0  0.120579 0.271764 0  0.8572149999999999 0.524082 0  0.7670979999999999 0.5551469999999999 0  0.936094 0.507131 0  0.804064 0.59585 0  0.700565 0.608273 0  0.429773 0.174231 0  0.117746 0.727333 0  0.5389620000000001 0.730231 0  0.862761 0.359173 0  0.821444 0.284046 0  0.193552 0.35818 0  0.234923 0.505555 0  0.193209 0.421217 0  0.220144 0.755896 0  0.594015 0.131642 0  0.283813 0.195855 0  0.517519 0.213961 0  0.553509 0.639116 0  0.280391 0.378018 0  0.852183 0.436817 0  0.746983 0.197173 0  0.821806 0.221318 0  0.449853 0.828453 0  0.883758 0.453926 0  0.183484 0.589542 0  0.348384 0.129314 0  0.255254 0.838525 0  0.504849 0.798516 0  0.320344 0.863432 0  0.611669 0.525425 0  0.265864 0.804962 0  0.72056 0.521442 0  0.613372 0.6101220000000001 0  0.481262 0.881068 0  0.655778 0.191988 0  0.701921 0.196918 0  0.5658260000000001 0.5731810000000001 0  0.46914 0.240927 0  0.343219 0.173284 0  0.888786 0.278502 0  0.244113 0.6750930000000001 0  0.739546 0.417914 0  0.784023 0.355942 0  0.326805 0.265549 0  0.248616 0.6
[...]
<PointData  Vectors="f_21"> 
<DataArray  type="Float64"  Name="f_21"  NumberOfComponents="3" format="ascii">1.6362300318581642e-05 -4.3979104733283126e-06 0.0000000000000000e+00  7.2995831967326047e-06 -9.7715926032991463e-07 0.0000000000000000e+00  1.2610685390830954e-06 -8.4763005470806992e-08 0.0000000000000000e+00  3.6667183394152579e-07 -3.2197230013257873e-08 0.0000000000000000e+00  1.0698363884305704e-07 -1.2144009072353899e-08 0.0000000000000000e+00  1.4630370675201114e-08 -2.2275520622895262e-09 0.0000000000000000e+00  3.5261779517945672e-09 -8.1141377950824121e-10 0.0000000000000000e+00  1.0782999219956492e-10 1.1489106748233689e-10 0.0000000000000000e+00  1.2977343810181235e-11 1.7845245206365439e-11 0.0000000000000000e+00  8.1239139640109154e-12 1.6166377429040421e-11 0.0000000000000000e+00  1.7435397463951278e-12 1.3412391580684071e-11 0.0000000000000000e+00  -1.1291592195079230e-12 1.0161737515698402e-11 0.0000000000000000e+00  -4.3965409741809279e-12 2.0601595832039451e-12 0.0000000000000000e+00  -6.7919530579072128e-13 -3.1681085687664423e-12 0.0000000000000000e+00  6.5310722347906312e-14 -3.9531452276075735e-13 0.0000000000000000e+00  1.5240004630483266e-15 -2.9940524164230115e-14 0.0000000000000000e+00  -5.3935430872095305e-16 -6.7976830075863413e-16 0.0000000000000000e+00  2.9303448268323477e-15 1.5183111850490019e-14 0.0000000000000000e+00  1.1035918570515597e-14 1.0029925008537942e-13 0.0000000000000000e+00  8.8480198343212063e-15 5.2305993508791110e-13 0.0000000000000000e+00  -9.3649923640542847e-13 2.6664252409144017e-12 0.0000000000000000e+00  -2.3274574221283435e-12 3.5861483357584123e-12 0.0000000000000000e+00  3.5515841708419352e-12 7.4479986655034979e-12 0.0000000000000000e+00  6.8787591588922744e-10 5.3669995684967939e-11 0.0000000000000000e+00  3.5913673735406087e-09 -4.8373627873175790e-10 0.0000000000000000e+00  8.4923508843640648e-09 -1.0372596488380194e-09 0.0000000000000000e+00  2.0018356695243037e-08 -2.9001867275468679e-09 0.0000000000000000e+00  3.9103548878029826e-08 -2.4644971161013384e-09 0.0000000000000000e+00  8.2809685795225005e-08 9.9092609821748683e-09 0.0000000000000000e+00  1.6239072715551639e-07 4.1065263306855174e-08 0.0000000000000000e+00  7.9064987660282485e-07 -6.0986141009425382e-08 0.0000000000000000e+00  1.0957941517065354e-06 -1.5120929384151047e-07 0.0000000000000000e+00  6.8261853526920373e-07 -1.1088719074128830e-07 0.0000000000000000e+00  2.7117868574169939e-07 -6.2974482570101276e-08 0.0000000000000000e+00  1.3830672047813703e-07 -3.2675599517029251e-08 0.0000000000000000e+00  9.4672509105752933e-08 -3.4772349064025495e-09 0.0000000000000000e+00  7.1918712476329955e-08 3.6699622244450250e-09 0.0000000000000000e+00  4.4137181547403732e-08 9.6225201938004803e-09 0.0000000000000000e+00  1.2131527479641264e-08 1.1855019445804725e-08 0.0000000000000000e+00  5.4798778206267404e-09 9.1390076687462717e-09 0.0000000000000000e+00  6.4821656245704234e-10 5.5903889021262982e-09 0.0000000000000000e+00  -7.2296779433985294e-10 3.2469475708115514e-09 0.0000000000000000e+00  -9.3461122198994881e-10 1.8048437740372045e-09 0.0000000000000000e+00  -7.0505771270545785e-10 4.0869617808556103e-10 0.0000000000000000e+00  8.4132176776039047e-10 -1.6724323599077569e-09 0.0000000000000000e+00  6.7015839550227986e-09 -2.9826347097586632e-09 0.0000000000000000e+00  4.4919021375145436e-08 2.4032701674846921e-09 0.0000000000000000e+00  2.9204088271740767e-07 -1.7937211040545143e-08 0.0000000000000000e+00  9.7110196745788838e-07 -1.1169850769717368e-07 0.0000000000000000e+00  1.8558127724505178e-06 -2.4192441152480700e-07 0.0000000000000000e+00  3.1994580615891701e-06 -5.2048587887180681e-07 0.0000000000000000e+00  4.7695156073266085e-06 -1.0148493669161448e-06 0.0000000000000000e+00  8.7926140365168112e-06 -1.4705886644505710e-06 0.0000000000000000e+00  1.5156111640055356e-05 -5.6390272612382897e-07 0.0000000000000000e+00  4.1286555159607261e-05 3.2085684082242514e-06 0.0000000000000000e+00  1.2652826874143529e-04 1.7002695465751290e-05 0.0000000000000000e+00  3.5598176081099418e-04 5.0370616244031675e-05 0.0000000000000000e+00  9.6093541437715726e-04 3.8309697316431677e-05 0.0000000000000000e+00  2.0580448758148379e-03 6.1538959669691186e-05 0.0000000000000000e+00  3.3307591866101930e-03 3.0155144298684806e-05 0.0000000000000000e+00  4.9593112629015080e-03 -9.0021934566354939e-05 0.0000000000000000e+00  6.4934440700567227e-03 -3.0518953999237252e-04 0.0000000000000000e+00  8.3238182071263857e-03 -5.3271155799448737e-04 0.0000000000000000e+00  1.0446394860403397e-02 -6.7915655385278047e-04 0.0000000000000000e+00  1.1545487480345106e-02 -3.0384132105188772e-04 0.0000000000000000e+00  1.3742342985147996e-02 2.3979141418502807e-04 0.0000000000000000e+00  1.5156951538804617e-02 1.4492388099147143e-04 0.0000000000000000e+00  1.3895533484932868e-02 -2.4858038623325516e-04 0.0000000000000000e+00  1.0143578228444658e-02 -4.9879493662498178e-04 0.0000000000000000e+00  5.5372793914696570e-03 -1.0427072379841705e-03 0.0000000000000000e+00  3.4319619973857654e-03 -1.0003763981744614e-03 0.0000000000000000e+00  1.9318210264106571e-03 -5.7263232850999688e-04 0.0000000000000000e+00  8.4695231207989404e-04 -2.4362783468473800e-04 0.0000000000000000e+00  1.9700645511573267e-04 -6.5306954428344220e-05 0.0000000000000000e+00  5.6689823133743795e-05 -2.4787170272968541e-05 0.0000000000000000e+00  3.0653328626817564e-05 -1.2916022920636539e-05 0.0000000000000000e+00  1.7615005307283296e-05 -5.2536568172682398e-06 0.0000000000000000e+00  1.5509066269412164e-01 -4.2935125231912216e-02 0.0000000000000000e+00  1.5531433991554494e-01 4.3209993124172973e-02 0.0000000000000000e+00  0.0000000000000000e+00 0.0000000000000000e+00 0.0000000000000000e+00  0.0000000000000000e+00 0.0000000000000000e+00 0.0000000000000000e+00  1.5313958740078698e-05 -3.6812690705857445e-06 0.0000000000000000e+00  1.3772816374275438e-05 -2.9488096684927305e-06 0.0000000000000000e+00  1.1805914865341967e-05 -2.1965210702993076e-06 0.0000000000000000e+00  9.6358858882593987e-06 -1.5365706904494768e-06 0.0000000000000000e+00  5.6298207767273767e-06 -6.6502568022997132e-07 0.0000000000000000e+00  3.9097128865445875e-06 -3.7995834147482114e-07 0.0000000000000000e+00  2.4987881157021174e-06 -2.0500165898594357e-07 0.0000000000000000e+00  7.2214434006736067e-07 -5.5073209406012951e-08 0.0000000000000000e+00  5.2814286663530470e-08 -9.7898579402241104e-09 0.0000000000000000e+00  2.7938164535420668e-08 -4.1209106866609101e-09 0.0000000000000000e+00  1.1860889224701815e-09 2.6911451162609320e-10 0.0000000000000000e+00  3.5020017667584134e-10 2.4999883146258640e-10 0.0000000000000000e+00  3.4771675990499441e-11 4.5211475731192555e-11 0.0000000000000000e+00  1.8931201139553898e-11 2.4196869448088882e-11 0.0000000000000000e+00  5.1924683497538599e-12 1.4821718140302450e-11 0.0000000000000000e+00  -2.1363377781990226e-12 8.1041992902678038e-12 0.0000000000000000e+00  -3.4262075604387879e-12 5.7466380196896353e-12 0.0000000000000000e+00  -3.9555716302509163e-12 -1.7418662433397860e-12 0.0000000000000000e+00  -2.4765334251895990e-12 -3.4119606627031782e-12 0.0000000000000000e+00  4.2246822386512067e-15 -1.4917761408156466e-12 0.0000000000000000e+00  3.1166141123824850e-16 4.1579056982275050e-15 0.0000000000000000e+00  -2.0285237750340664e-13 1.4409872094311148e-12 0.0000000000000000e+00  4.1296378517025725e-11 5.7974482383438570e-12 0.0000000000000000e+00  1.9913840543699432e-10 -8.9468606722193808e-12 0.0000000000000000e+00  1.3828576348065502e-08 -2.0102530389055437e-09 0.0000000000000000e+00  2.6499737989995775e-08 -3.0995566760171044e-09 0.0000000000000000e+00  3.4735425707980880e-07 5.9224901527433143e-08 0.0000000000000000e+00  4.6490594973765243e-07 -9.7572526707477530e-08 0.0000000000000000e+00  1.0778476264380454e-07 -1.5722890726016840e-08 0.0000000000000000e+00  5.7306762586382574e-08 6.1429850656239216e-09 0.0000000000000000e+00  2.7959097850390086e-08 1.1985040851494256e-08 0.0000000000000000e+00  1.8577768938751903e-08 1.2150092203243915e-08 0.0000000000000000e+00  2.9249045110597839e-09 7.2567775345013132e-09 0.0000000000000000e+00  2.3905366378532449e-09 -1.9927137806230537e-09 0.0000000000000000e+00  5.4581200867253132e-07 -4.7056469919530559e-08 0.0000000000000000e+00  6.7174652387710100e-06 -1.3019274227235406e-06 0.0000000000000000e+00  7.7512064892524933e-05 9.2489240679757928e-06 0.0000000000000000e+00  6.2703411827627750e-04 6.0255219130828817e-05 0.0000000000000000e+00  4.0556949721158959e-03 -2.8418716521387787e-05 0.0000000000000000e+00  7.5124201556341762e-03 -4.3198022486098546e-04 0.0000000000000000e+00  9.4387999224427779e-03 -6.4468883620619210e-04 0.0000000000000000e+00  1.2529879048594031e-02 7.6505132420531721e-05 0.0000000000000000e+00  1.5273150735591915e-02 7.1353837227565182e-05 0.0000000000000000e+00  7.7492603485941579e-03 -9.4116890191183638e-04 0.0000000000000000e+00  4.0964481171491070e-04 -1.3106410069932238e-04 0.0000000000000000e+00  9.5061967214637026e-05 -3.8175635287739169e-05 0.0000000000000000e+00  3.8174405610697940e-05 -1.6962804766185235e-05 0.0000000000000000e+00  2.5612543273804864e-05 -9.4264770592915616e-06 0.0000000000000000e+00  2.1853527225601836e-05 -7.3258981091678729e-06 0.0000000000000000e+00  1.9304203555799746e-05 -6.0540840510959748e-06 0.0000000000000000e+00  1.4328158567168864e-01 -1.6934135535143086e-02 0.0000000000000000e+00  1.4076490148730431e-01 -3.3346842835324624e-03 0.0000000000000000e+00  1.4101724116927233e-01 -8.1589869006775523e-05 0.0000000000000000e+00  1.4054281204883831e-01 -1.6929200267067846e-04 0.0000000000000000e+00  1.4083912677071259e-01 4.9616885358249849e-05 0.0000000000000000e+00  1.4082236825618535e-01 -7.7203162302900299e-05 0.0000000000000000e+00  1.4092861863735792e-01 1.7642719410462869e-04 0.0000000000000000e+00  1.4116539882694487e-01 3.2231324413535840e-03 0.0000000000000000e+00  1.4293406321173829e-01 1.7138761490898852e-02 0.0000000000000000e+00  7.7490736322649231e-02 2.5555580629361589e-02 0.0000000000000000e+00  2.5775488853442205e-02 8.3855471269581299e-03 0.0000000000000000e+00  2.5411130085804231e-03 8.0798941621694237e-04 0.0000000000000000e+00  3.8360492059039827e-05 8.7269520997917264e-06 0.0000000000000000e+00  3.7767665587698119e-07 -1.8773698643366473e-07 0.0000000000000000e+00  7.3389850153923371e-09 6.1582907651119997e-09 0.0000000000000000e+00  7.6927712314313624e-11 2.5892474435421179e-10 0.0000000000000000e+00  -7.3287298048974376e-13 5.0059808363576483e-12 0.0000000000000000e+00  -4.5163238871337939e-14 5.8833624488214924e-14 0.0000000000000000e+00  -1.0490069326357674e-14 6.0582946045588252e-14 0.0000000000000000e+00  -2.3933879926227342e-12 -2.0437755912721862e-12 0.0000000000000000e+00  -9.4923998429104064e-12 -2.3095488029577682e-10 0.0000000000000000e+00  1.7318180155654318e-09 -5.3135519903455565e-09 0.0000000000000000e+00  1.6253388822734553e-07 -5.6187119982523087e-08 0.0000000000000000e+00  3.1953833865483557e-05 -5.3493011524135212e-06 0.0000000000000000e+00  2.3894955894496793e-03 -5.8566232449557725e-04 0.0000000000000000e+00  2.6040113665551826e-02 -8.8829617004265900e-03 0.0000000000000000e+00  7.7381786934688404e-02 -2.5502589252378086e-02 0.0000000000000000e+00  0.0000000000000000e+00 0.0000000000000000e+00 0.0000000000000000e+00  0.0000000000000000e+00 0.0000000000000000e+00 0.0000000000000000e+00  0.0000000000000000e+00 0.0000000000000000e+00 0.0000000000000000e+00  0.0000000000000000e+00 0.0000000000000000e+00 0.0000000000000000e+00  0.0000000000000000e+00 0.0000000000000000e+00 0.0000000000000000e+00  0.0000000000000000e+00 0.0000000000000000e+00 0.0000000000000000e+00  0.0000000000000000e+00 0.0000000000000000e+00 0.0000000000000000e+00  0.0000000000000000e+00 0.0000000000000000e+00 0.0000000000000000e+00  0.0000000000000000e+00 0.0000000000000000e+00 0.0000000000000000e+00  2.3831105762656475e-05 5.9686589045990278e-07 0.0000000000000000e+00  1.0477594876388311e-02 -3.1770295474364271e-05 0.0000000000000000e+00  6.1830682112783624e-14 1.9565790735591144e-14 0.0000000000000000e+00  8.8321066120233922e-13 -1.2462653316522371e-13 0.0000000000000000e+00  6.5618270628715891e-03 1.1786315954391509e-04 0.0000000000000000e+00  1.9112342560281789e-05 1.5037365205672779e-06 0.0000000000000000e+00  4.3638412089011210e-02 8.1375937281080507e-05 0.0000000000000000e+00  4.5724222359419552e-07 -7.5999041951757025e-08 0.0000000000000000e+00  5.1002883078958455e-17 3.9149010414623250e-17 0.0000000000000000e+00  4.3894154940396070e-10 6.9994606385459992e-11 0.0000000000000000e+00  4.1885049536494851e-10 -1.1236293647931606e-10 0.0000000000000000e+00  -2.0271968176340591e-15 1.5691997120803355e-15 0.0000000000000000e+00  -2.3937927498600992e-15 -1.2835786105826607e-14 0.0000000000000000e+00  9.4375479347886565e-02 -1.8685242071283935e-02 0.0000000000000000e+00  9.3638768570939848e-02 1.9792672739529012e-02 0.0000000000000000e+00  -6.6902428682840532e-12 -3.2423513466566011e-11 0.0000000000000000e+00  6.2111818794880711e-07 -9.2492608842293613e-08 0.0000000000000000e+00  1.2668484920946882e-07 -1.9049716454433624e-08 0.0000000000000000e+00  8.6442062538195262e-09 8.0303691027930067e-09 0.0000000000000000e+00  1.1120156901843596e-05 -3.5486536495770804e-07 0.0000000000000000e+00  3.2827596927132944e-12 1.2941997041402883e-11 0.0000000000000000e+00  1.4918075421897897e-05 -4.1995513276331187e-06 0.0000000000000000e+00  4.0542471467167645e-15 -3.0904041288701196e-15 0.0000000000000000e+00  3.7012409300658827e-02 -1.7169261631967624e-03 0.0000000000000000e+00  2.3624979787175077e-04 -1.4522388985599405e-05 0.0000000000000000e+00  4.4770503460162113e-02 -3.5454857002569221e-05 0.0000000000000000e+00  6.2932253132066919e-04 -2.0946324528903461e-05 0.0000000000000000e+00  4.9056245177963996e-02 3.5091007634931658e-04 0.0000000000000000e+00  2.0475237355371218e-13 -1.0880280519015347e-14 0.0000000000000000e+00  8.6641334025584687e-13 -1.3103351693437696e-13 0.0000000000000000e+00  2.4181666075147020e-07 4.8629044984468754e-08 0.0000000000000000e+00  3.8653067481134888e-02 3.9726889667922359e-03 0.0000000000000000e+00  1.3956778357078418e-14 1.3694869709908096e-14 0.0000000000000000e+00  4.5841181998197824e-04 4.1300203340020001e-05 0.0000000000000000e+00  1.2864071237723917e-03 1.7953694835228233e-05 0.0000000000000000e+00  2.7296284354425937e-11 -1.1270040581710262e-11 0.0000000000000000e+00  7.7951722312198302e-12 3.0618750234386294e-12 0.0000000000000000e+00  2.7537840994536659e-16 4.9357886550058006e-17 0.0000000000000000e+00  4.8594304924086401e-15 -5.5623970767895339e-16 0.0000000000000000e+00  1.9207044162156681e-08 -3.6137891867822948e-09 0.0000000000000000e+00  9.1120149694289138e-02 -3.4438757594253036e-05 0.0000000000000000e+00  4.0125305565044262e-05 1.2478017948862390e-07 0.0000000000000000e+00  2.9696520018930150e-02 1.7184560699112534e-04 0.0000000000000000e+00  1.0541924419618187e-02 3.2680101759369992e-05 0.0000000000000000e+00  1.5773190219521223e-07 -1.7408666755559278e-08 0.0000000000000000e+00  2.4708565942543849e-18 -4.4342535923298877e-19 0.0000000000000000e+00  2.6161752980244806e-09 2.4873158978614778e-10 0.0000000000000000e+00  8.4292320295880472e-11 -7.2743361249043646e-12 0.0000000000000000e+00  -1.8581915847306372e-12 -7.6681066970388859e-12 0.0000000000000000e+00  5.9584130799923483e-06 -2.5983099654018455e-07 0.0000000000000000e+00  -4.2821268915231479e-12 1.1693355850352378e-11 0.0000000000000000e+00  2.2207739100345911e-06 -1.8552511088806112e-07 0.0000000000000000e+00  1.5727461025894773e-06 -2.0270122966789302e-07 0.0000000000000000e+00  4.2221586722142578e-08 8.3282535247713081e-09 0.0000000000000000e+00  2.9451326439670851e-07 -5.2748077758694940e-08 0.0000000000000000e+00  1.6529087152618856e-09 3.3637468708805855e-09 0.0000000000000000e+00  1.7542412045643817e-05 -1.1435329216537787e-07 0.0000000000000000e+00  1.6840906063860849e-07 -3.2595938445946359e-08 0.0000000000000000e+00  7.6239118908343958e-06 -5.2087454433890958e-07 0.0000000000000000e+00  7.2144926757727191e-08 -6.6433711575596751e-09 0.0000000000000000e+00  5.3107183199453370e-09 6.4243618169624209e-09 0.0000000000000000e+00  1.5559487498586880e-08 7.7344384350169533e-09 0.0000000000000000e+00  -7.3732077574323589e-13 7.3557975455397404e-12 0.0000000000000000e+00  7.6749675916893836e-12 1.4873880516231665e-11 0.0000000000000000e+00  1.8694627885276362e-12 1.0644994756048233e-11 0.0000000000000000e+00  1.1049614743965245e-05 -2.5870384389419407e-06 0.0000000000000000e+00  1.7189339334201232e-05 -5.1878781998693126e-06 0.0000000000000000e+00  1.5117051821701997e-05 -4.0728897863399436e-06 0.0000000000000000e+00  1.4574689258675273e-04 -1.2459619767127973e-05 0.0000000000000000e+00  6.1505851794666937e-02 -3.5053476832901781e-04 0.0000000000000000e+00  1.3997343406106786e-16 6.5850805508786691e-17 0.0000000000000000e+00  7.4518232403697815e-02 2.8731405700764297e-05 0.0000000000000000e+00  8.9615253716689073e-17 4.5227003366983501e-16 0.0000000000000000e+00  1.0398229983882928e-02 -5.9167638822371302e-04 0.0000000000000000e+00  7.1014780163959318e-02 -4.9190599902279770e-05 0.0000000000000000e+00  9.1754613391106608e-03 -3.5561096784208137e-05 0.0000000000000000e+00  5.3688537905713437e-12 2.8045722217494150e-12 0.0000000000000000e+00  4.3432500139976876e-17 -3.4345692670964788e-17 0.0000000000000000e+00  3.7846090404056709e-11 1.4531197164395240e-12 0.0000000000000000e+00  2.1147916294544367e-15 -7.7346774211472974e-16 0.0000000000000000e+00  6.7245072073525800e-02 3.1307371118442263e-03 0.0000000000000000e+00  1.8301041024067183e-05 -1.9983167498469959e-07 0.0000000000000000e+00  1.8277113172487021e-15 -1.8508083247281902e-15 0.0000000000000000e+00  1.0043190289707739e-06 6.3623492050579657e-08 0.0000000000000000e+00  8.1538610859198557e-02 -7.1258464423309990e-03 0.0000000000000000e+00  2.1722046509190793e-06 4.5712639193344519e-07 0.0000000000000000e+00  6.9363887659518671e-11 -8.6021899659308464e-12 0.0000000000000000e+00  1.8353770151075720e-02 -7.6644437585653754e-05 0.0000000000000000e+00  7.4433134280577308e-03 5.9795658113018517e-04 0.0000000000000000e+00  1.9173338735204895e-09 5.2683385302581636e-10 0.0000000000000000e+00  2.9400309040073416e-15 -4.5228662847055339e-15 0.0000000000000000e+00  4.6022982135299775e-02 -7.7762890336408267e-03 0.0000000000000000e+00  4.0402714469099596e-05 -4.3660015695544333e-06 0.0000000000000000e+00  4.2476085682937094e-13 -6.3761153840954650e-13 0.0000000000000000e+00  3.5531549142465588e-12 -9.1557965266032584e-12 0.0000000000000000e+00  1.6690525668903008e-08 -3.0052012183549776e-09 0.0000000000000000e+00  5.1904345026970581e-04 -2.1454369196925610e-05 0.0000000000000000e+00  1.0299057964807153e-14 1.1177246232276505e-15 0.0000000000000000e+00  1.9407270679191215e-13 4.7500857105879932e-13 0.0000000000000000e+00  1.3670043817000594e-02 3.0969474226166176e-04 0.0000000000000000e+00  1.7530195134886741e-04 7.4345048493151740e-06 0.0000000000000000e+00  2.7733024818858476e-15 4.7254132587529456e-15 0.0000000000000000e+00  1.4467266985317955e-13 9.0647824881220119e-14 0.0000000000000000e+00  1.5183586596219370e-03 8.9135247777061312e-05 0.0000000000000000e+00  3.1433151255412138e-04 -9.8913547538446820e-06 0.0000000000000000e+00  2.3046994599493628e-03 -7.8790661189721554e-05 0.0000000000000000e+00  2.5717338753471203e-08 -3.4881631472797618e-09 0.0000000000000000e+00  2.7484230469329709e-02 -1.1306419757519239e-04 0.0000000000000000e+00  1.1178122373020662e-09 -3.2187153783762614e-10 0.0000000000000000e+00  1.7962558199322989e-10 -1.5954495310223803e-10 0.0000000000000000e+00  2.3926454330456225e-11 2.8343696745523747e-11 0.0000000000000000e+00  3.2863258829624570e-05 -3.0729587238463459e-06 0.0000000000000000e+00  7.2840221428648928e-08 -1.9971055283817755e-09 0.0000000000000000e+00  2.2643658247782519e-08 1.8555581296265653e-09 0.0000000000000000e+00  5.0762367557008131e-05 4.5245092597805251e