<?xml version="1.0"?>
<VTKFile type="UnstructuredGrid"  version="0.1"  >
<UnstructuredGrid>
<Piece  NumberOfPoints="2868" NumberOfCells="5400">
<Points>
<DataArray  type="Float64"  NumberOfComponents="3"  format="ascii">0.534923 0.326073 0  0.510642 0.314196 0  0.466125 0.293082 0  0.436448 0.281205 0  0.409468 0.275927 0  0.368998 0.270648 0  0.35281 0.275927 0  0.381139 0.302319 0  0.405421 0.326073 0  0.410817 0.33531 0  0.408119 0.349826 0  0.400025 0.357744 0  0.375743 0.368301 0  0.329878 0.392055 0  0.297502 0.432963 0  0.282663 0.476511 0  0.285361 0.524018 0  0.298851 0.572845 0  0.317737 0.6045160000000001 0  0.337972 0.6361869999999999 0  0.360904 0.674457 0  0.368998 0.69953 0  0.359555 0.7219640000000001 0  0.360904 0.757594 0  0.370347 0.766831 0  0.381139 0.762872 0  0.390582 0.741758 0  0.404072 0.720644 0  0.424307 0.707448 0  0.447239 0.702169 0  0.480964 0.704808 0  0.479615 0.6889729999999999 0  0.468823 0.675776 0  0.447239 0.6691780000000001 0  0.428354 0.6691780000000001 0  0.410817 0.6639 0  0.404072 0.653343 0  0.395978 0.628269 0  0.387884 0.59132 0  0.389233 0.576804 0  0.397327 0.557009 0  0.410817 0.547772 0  0.424307 0.546452 0  0.437797 0.55305 0  0.44589 0.5662469999999999 0  0.441843 0.582082 0  0.439145 0.5979179999999999 0  0.449937 0.609795 0  0.468823 0.603196 0  0.479615 0.59 0  0.489058 0.570205 0  0.494454 0.546452 0  0.505246 0.522699 0  0.522783 0.509502 0  0.55246 0.494986 0  0.586185 0.484429 0  0.615863 0.48047 0  0.64554 0.473872 0  0.6671240000000001 0.461995 0  0.683312 0.451438 0  0.696802 0.435603 0  0.703547 0.417128 0  0.7116400000000001 0.393374 0  0.7183850000000001 0.37226 0  0.7251300000000001 0.364342 0  0.739969 0.353785 0  0.7453650000000001 0.344548 0  0.7453650000000001 0.327393 0  0.737271 0.318155 0  0.7183850000000001 0.316835 0  0.7008490000000001 0.319475 0  0.677916 0.318155 0  0.650936 0.316835 0  0.610467 0.318155 0  0.57944 0.324753 0  0.559205 0.328712 0  0.5389699999999999 0.326073 0  1 1 0  1 0 0  0 0 0  0 1 0  0.532238 0.32476 0  0.528748 0.323052 0  0.52421 0.320833 0  0.518311 0.317947 0  0.503447 0.310783 0  0.494093 0.306347 0  0.481933 0.30058 0  0.452151 0.28749 0  0.392327 0.273691 0  0.379141 0.271971 0  0.360474 0.283066 0  0.369797 0.291752 0  0.391424 0.31238 0  0.399335 0.32012 0  0.40958 0.341964 0  0.393939 0.36039 0  0.386028 0.36383 0  0.364248 0.374254 0  0.349304 0.381994 0  0.315801 0.409841 0  0.292986 0.551616 0  0.350934 0.657818 0  0.360127 0.737055 0  0.360566 0.748664 0  0.385245 0.753692 0  0.396447 0.732578 0  0.466301 0.703661 0  0.459439 0.672908 0  0.418442 0.666195 0  0.400553 0.642441 0  0.39255 0.612619 0  0.389913 0.60058 0  0.392752 0.568197 0  0.444131 0.573132 0  0.458149 0.606926 0  0.5005540000000001 0.533026 0  0.571522 0.489019 0  0.632637 0.476741 0  0.689177 0.444553 0  0.708121 0.403702 0  0.715453 0.38144 0  0.732406 0.359166 0  0.7453650000000001 0.337089 0  0.72906 0.317581 0  0.629879 0.317522 0  0.59293 0.321884 0  0.568003 0.326991 0  0.55202 0.327775 0  0.546493 0.327054 0  0.542241 0.326499 0  1 0.9 0  1 0.8 0  1 0.7 0  1 0.6 0  1 0.5 0  1 0.4 0  1 0.3 0  1 0.2 0  1 0.1 0  0.9 0 0  0.8 0 0  0.7 0 0  0.6 0 0  0.5 0 0  0.4 0 0  0.3 0 0  0.2 0 0  0.1 0 0  0.1 1 0  0.2 1 0  0.3 1 0  0.4 1 0  0.5 1 0  0.6 1 0  0.7 1 0  0.8 1 0  0.9 1 0  0 0.1 0  0 0.2 0  0 0.3 0  0 0.4 0  0 0.5 0  0 0.6 0  0 0.7 0  0 0.8 0  0 0.9 0  0.535686 0.5031910000000001 0  0.753987 0.733359 0  0.167145 0.741436 0  0.173378 0.257204 0  0.733497 0.159862 0  0.554096 0.15788 0  0.849187 0.479053 0  0.488793 0.838452 0  0.138507 0.5592 0  0.30686 0.154944 0  0.348904 0.890523 0  0.058006 0.065099 0  0.06984899999999999 0.937917 0  0.93633 0.939704 0  0.934625 0.053613 0  0.343397 0.333452 0  0.473272 0.639943 0  0.433266 0.638072 0  0.415174 0.58269 0  0.533435 0.545042 0  0.390848 0.340652 0  0.53655 0.320242 0  0.127966 0.393775 0  0.83861 0.850455 0  0.635242 0.8551299999999999 0  0.852158 0.633441 0  0.653427 0.626848 0  0.861226 0.24292 0  0.166128 0.12976 0  0.216875 0.8698709999999999 0  0.458305 0.11179 0  0.84446 0.101633 0  0.202024 0.642528 0  0.644825 0.115855 0  0.671342 0.218358 0  0.251354 0.286186 0  0.262388 0.75153 0  0.063044 0.751571 0  0.068189 0.242962 0  0.435781 0.9053949999999999 0  0.934144 0.451133 0  0.568393 0.237622 0  0.814984 0.395506 0  0.752951 0.517227 0  0.456254 0.780699 0  0.073352 0.531116 0  0.337731 0.206071 0  0.363213 0.960371 0  0.330742 0.363592 0  0.516613 0.55705 0  0.369057 0.332992 0  0.500926 0.617309 0  0.498004 0.665534 0  0.412142 0.61178 0  0.454233 0.6366039999999999 0  0.422782 0.567496 0  0.541193 0.5214800000000001 0  0.439761 0.65557 0  0.5163 0.533672 0  0.414775 0.64562 0  0.40073 0.576135 0  0.430362 0.5880339999999999 0  0.385432 0.351492 0  0.400298 0.335397 0  0.398325 0.348194 0  0.528702 0.314885 0  0.540814 0.322334 0  0.534477 0.322953 0  0.619095 0.743583 0  0.885162 0.737972 0  0.08076 0.668849 0  0.90734 0.36634 0  0.09468699999999999 0.868937 0  0.759838 0.912152 0  0.901518 0.540898 0  0.747285 0.607479 0  0.229182 0.071641 0  0.06915399999999999 0.450091 0  0.244775 0.203309 0  0.076534 0.331755 0  0.897847 0.167826 0  0.578909 0.911415 0  0.07713299999999999 0.146341 0  0.477215 0.203448 0  0.922631 0.869341 0  0.517415 0.074785 0  0.297026 0.827793 0  0.7832710000000001 0.246505 0  0.74519 0.061079 0  0.36033 0.069068 0  0.210313 0.475228 0  0.859426 0.928758 0  0.5745479999999999 0.609182 0  0.243069 0.383398 0  0.283099 0.934598 0  0.417416 0.843141 0  0.643942 0.553164 0  0.112687 0.079336 0  0.281357 0.658386 0  0.765043 0.436177 0  0.611361 0.198486 0  0.234496 0.58911 0  0.206479 0.702638 0  0.679608 0.155818 0  0.62682 0.259978 0  0.690538 0.264164 0  0.448938 0.956308 0  0.808154 0.328403 0  0.379583 0.91913 0  0.308083 0.297769 0  0.312358 0.730249 0  0.563101 0.278576 0  0.435597 0.746198 0  0.385475 0.225229 0  0.572248 0.518034 0  0.357864 0.35422 0  0.497647 0.641694 0  0.458101 0.655768 0  0.360474 0.310727 0  0.467038 0.620139 0  0.47798 0.659909 0  0.41102 0.628072 0  0.48324 0.609015 0  0.427544 0.617941 0  0.388633 0.328253 0  0.405336 0.599404 0  0.408351 0.565178 0  0.42395 0.600985 0  0.431562 0.576523 0  0.424905 0.6551979999999999 0  0.398064 0.58782 0  0.427739 0.557934 0  0.5192909999999999 0.303443 0  0.53142 0.320293 0  0.5449000000000001 0.323642 0  0.537166 0.323513 0  0.153974 0.920841 0  0.9181859999999999 0.67343 0  0.759946 0.820588 0  0.5375259999999999 0.783091 0  0.816532 0.545843 0  0.813991 0.178083 0  0.836774 0.702023 0  0.149815 0.318856 0  0.662287 0.923338 0  0.680146 0.791192 0  0.708961 0.663172 0  0.9372779999999999 0.287318 0  0.574622 0.6881660000000001 0  0.5894740000000001 0.076262 0  0.502822 0.926683 0  0.222269 0.811068 0  0.380457 0.164786 0  0.15321 0.684154 0  0.458063 0.051413 0  0.161702 0.056026 0  0.199351 0.198818 0  0.298946 0.09553200000000001 0  0.902465 0.795949 0  0.121139 0.791477 0  0.906269 0.112287 0  0.056109 0.822332 0  0.512172 0.13237 0  0.940964 0.741805 0  0.888887 0.408777 0  0.354543 0.825964 0  0.808736 0.068638 0  0.068507 0.394071 0  0.719105 0.563843 0  0.247287 0.149664 0  0.293062 0.237128 0  0.240524 0.434997 0  0.141255 0.623289 0  0.945202 0.160621 0  0.502914 0.247629 0  0.144669 0.480811 0  0.665025 0.060817 0  0.728047 0.224344 0  0.861995 0.313312 0  0.200068 0.534235 0  0.253262 0.965623 0  0.893804 0.49307 0  0.604391 0.572456 0  0.947088 0.345347 0  0.439372 0.227307 0  0.629847 0.159823 0  0.273405 0.880181 0  0.302744 0.776823 0  0.781502 0.295365 0  0.275342 0.349602 0  0.7283849999999999 0.472798 0  0.229136 0.246478 0  0.807794 0.480346 0  0.709476 0.112786 0  0.275506 0.694991 0  0.771674 0.394419 0  0.449715 0.861802 0  0.419159 0.799696 0  0.674851 0.503139 0  0.280443 0.61016 0  0.572443 0.192538 0  0.393113 0.87525 0  0.405555 0.948428 0  0.330942 0.934103 0  0.540509 0.597101 0  0.312763 0.6689310000000001 0  0.254368 0.540179 0  0.595265 0.25915 0  0.606679 0.234099 0  0.657131 0.279138 0  0.722458 0.279478 0  0.333 0.308056 0  0.351529 0.246142 0  0.455714 0.7257940000000001 0  0.585239 0.295143 0  0.340062 0.72492 0  0.545593 0.293773 0  0.555449 0.545426 0  0.414311 0.737314 0  0.590854 0.502323 0  0.350507 0.368444 0  0.484423 0.625665 0  0.483899 0.674542 0  0.378137 0.317274 0  0.446416 0.646404 0  0.373532 0.347654 0  0.446876 0.619769 0  0.466106 0.666068 0  0.437545 0.609254 0  0.434988 0.565726 0  0.41462 0.656829 0  0.418803 0.556961 0  0.398425 0.327446 0  0.517803 0.310421 0  0.549516 0.322918 0  0.57701 0.842889 0  0.8291269999999999 0.773906 0  0.643235 0.684732 0  0.134281 0.207734 0  0.865997 0.055966 0  0.680959 0.723345 0  0.165229 0.8415550000000001 0  0.54558 0.959672 0  0.783726 0.656439 0  0.913315 0.595533 0  0.699439 0.860667 0  0.785839 0.125076 0  0.551673 0.037713 0  0.9200970000000001 0.223214 0  0.206406 0.299726 0  0.087064 0.596401 0  0.935644 0.394252 0  0.964557 0.252582 0  0.230124 0.928346 0  0.120579 0.271764 0  0.8572149999999999 0.524082 0  0.7670979999999999 0.5551469999999999 0  0.936094 0.507131 0  0.804064 0.59585 0  0.700565 0.608273 0  0.429773 0.174231 0  0.117746 0.727333 0  0.5389620000000001 0.730231 0  0.862761 0.359173 0  0.821444 0.284046 0  0.193552 0.35818 0  0.234923 0.505555 0  0.193209 0.421217 0  0.220144 0.755896 0  0.594015 0.131642 0  0.283813 0.195855 0  0.517519 0.213961 0  0.553509 0.639116 0  0.280391 0.378018 0  0.852183 0.436817 0  0.746983 0.197173 0  0.821806 0.221318 0  0.449853 0.828453 0  0.883758 0.453926 0  0.183484 0.589542 0  0.348384 0.129314 0  0.255254 0.838525 0  0.504849 0.798516 0  0.320344 0.863432 0  0.611669 0.525425 0  0.265864 0.804962 0  0.72056 0.521442 0  0.613372 0.6101220000000001 0  0.481262 0.881068 0  0.655778 0.191988 0  0.701921 0.196918 0  0.5658260000000001 0.5731810000000001 0  0.46914 0.240927 0  0.343219 0.173284 0  0.888786 0.278502 0  0.244113 0.6750930000000001 0  0.739546 0.417914 0  0.784023 0.355942 0  0.326805 0.265549 0  0.248616 0.6
[...]
<PointData  Vectors="f_21"> 
<DataArray  type="Float64"  Name="f_21"  NumberOfComponents="3" format="ascii">4.4557544279521089e-01 -1.9156040548898984e-02 0.0000000000000000e+00  4.3574824819411156e-01 -2.0462596934923822e-02 0.0000000000000000e+00  3.9442086749390803e-01 -1.7352813892562154e-02 0.0000000000000000e+00  3.5199936358563311e-01 -1.2719406941841729e-02 0.0000000000000000e+00  3.0856634408561012e-01 -8.4232388715248813e-03 0.0000000000000000e+00  2.2589635962656510e-01 7.7427583763720557e-03 0.0000000000000000e+00  1.7228373333115907e-01 1.3583972793478099e-02 0.0000000000000000e+00  1.0320066630451946e-01 6.0919091523365131e-02 0.0000000000000000e+00  7.1724320207604456e-02 8.6956421856762861e-02 0.0000000000000000e+00  6.0616999848429852e-02 9.3219020465104954e-02 0.0000000000000000e+00  4.3194275149053059e-02 8.9793049018090168e-02 0.0000000000000000e+00  3.3774113190779990e-02 7.9870594438588141e-02 0.0000000000000000e+00  2.3111934533775219e-02 4.9624651393989187e-02 0.0000000000000000e+00  1.2047379881114159e-02 2.5277629660938419e-03 0.0000000000000000e+00  3.6692461733106143e-03 -1.0632698286724742e-02 0.0000000000000000e+00  7.9389959668565318e-04 -7.0191822880914106e-03 0.0000000000000000e+00  -8.9693140877268433e-04 1.4290288111150923e-03 0.0000000000000000e+00  -2.1305529534556018e-03 4.8321274174934021e-03 0.0000000000000000e+00  1.3788329099381675e-03 -1.3847062278881013e-03 0.0000000000000000e+00  1.1590618507560697e-02 -1.5672071467026247e-02 0.0000000000000000e+00  3.6350380009696225e-02 -4.2004036907272002e-02 0.0000000000000000e+00  6.1546460878184168e-02 -5.5181385870281360e-02 0.0000000000000000e+00  8.9005003724703990e-02 -5.1195236804102498e-02 0.0000000000000000e+00  1.7752389759276863e-01 -6.2742419490687665e-02 0.0000000000000000e+00  2.4782620476970921e-01 -7.9963123751612644e-02 0.0000000000000000e+00  3.0449903551709734e-01 -8.3713136872352156e-02 0.0000000000000000e+00  3.8567579258017959e-01 -8.2905538534167544e-02 0.0000000000000000e+00  4.2386489348695749e-01 -6.8551329967795560e-02 0.0000000000000000e+00  4.4002518695818921e-01 -5.4609458266983976e-02 0.0000000000000000e+00  4.4961743034211898e-01 -4.9705431592252401e-02 0.0000000000000000e+00  4.9853924342807954e-01 -7.9994480373821827e-02 0.0000000000000000e+00  5.7395873382183693e-01 -9.6736432956052290e-02 0.0000000000000000e+00  6.2290030960065312e-01 -9.9499394430373866e-02 0.0000000000000000e+00  6.6302286966211788e-01 -7.1991447856546500e-02 0.0000000000000000e+00  6.8534747463534496e-01 -2.8454083661009145e-02 0.0000000000000000e+00  6.8129355893376453e-01 1.5146472817639657e-02 0.0000000000000000e+00  6.6211185157588504e-01 3.2672934175176256e-02 0.0000000000000000e+00  6.1123383733294556e-01 7.3960331424423140e-02 0.0000000000000000e+00  4.7828168700028167e-01 1.4161935118912200e-01 0.0000000000000000e+00  4.1180015142908261e-01 1.4277077529797971e-01 0.0000000000000000e+00  3.1675490617212032e-01 1.1078336590688349e-01 0.0000000000000000e+00  2.7169093729384475e-01 4.8815707530294711e-02 0.0000000000000000e+00  2.6472228021480831e-01 -1.4518287270104993e-02 0.0000000000000000e+00  2.9579345321211220e-01 -7.8844117204122169e-02 0.0000000000000000e+00  3.6026174015762730e-01 -1.1831078001000905e-01 0.0000000000000000e+00  4.4046629222401146e-01 -9.5895123635580559e-02 0.0000000000000000e+00  5.2346301331158318e-01 -6.9925784211724545e-02 0.0000000000000000e+00  5.9548401154929809e-01 -8.4293407903008516e-02 0.0000000000000000e+00  6.3570610762448543e-01 -9.5262261517478311e-02 0.0000000000000000e+00  6.6202648236909800e-01 -9.3208181132572634e-02 0.0000000000000000e+00  6.8520094174854074e-01 -8.9175462958667920e-02 0.0000000000000000e+00  7.0532201444902054e-01 -8.6468632487021344e-02 0.0000000000000000e+00  7.2268981312757530e-01 -7.9393039530922291e-02 0.0000000000000000e+00  7.3216931968620724e-01 -6.7540899293237575e-02 0.0000000000000000e+00  7.4336493693805605e-01 -4.7451543617982622e-02 0.0000000000000000e+00  7.5274611024990712e-01 -2.5680767116944087e-02 0.0000000000000000e+00  7.5819277819145203e-01 -9.3301582791013530e-03 0.0000000000000000e+00  7.6719353067219154e-01 4.4339426746883692e-03 0.0000000000000000e+00  7.7858713989896466e-01 1.4496795418802565e-02 0.0000000000000000e+00  7.8730502886416243e-01 2.3256412392003489e-02 0.0000000000000000e+00  7.9683016704880294e-01 3.3549566281073015e-02 0.0000000000000000e+00  8.0342499863101025e-01 4.2597051001864568e-02 0.0000000000000000e+00  8.0708957069601739e-01 5.4312974233232683e-02 0.0000000000000000e+00  8.0672870009669839e-01 6.2173568505320582e-02 0.0000000000000000e+00  8.0667513535446811e-01 6.5617268422733924e-02 0.0000000000000000e+00  8.0164634305912552e-01 7.7600816792022229e-02 0.0000000000000000e+00  7.8921997774725394e-01 8.5948846119679762e-02 0.0000000000000000e+00  7.4684429984139455e-01 9.5878681539891278e-02 0.0000000000000000e+00  7.0236133870381912e-01 9.8751671126821761e-02 0.0000000000000000e+00  6.4977285797364104e-01 8.5725969907525804e-02 0.0000000000000000e+00  6.1805383944094905e-01 7.2706461700830061e-02 0.0000000000000000e+00  5.8760937322423801e-01 6.1235638095247243e-02 0.0000000000000000e+00  5.4955432182051023e-01 4.7476241718851724e-02 0.0000000000000000e+00  4.9563412059771944e-01 2.2520586054992960e-02 0.0000000000000000e+00  4.6220536310299742e-01 3.5286083479382336e-05 0.0000000000000000e+00  4.5124995519401878e-01 -1.1561811766007417e-02 0.0000000000000000e+00  4.4633731022206902e-01 -1.8269557783701453e-02 0.0000000000000000e+00  8.7038178138550382e-01 -2.1107451596480248e-01 0.0000000000000000e+00  8.7080162100211300e-01 1.7017992585071920e-01 0.0000000000000000e+00  0.0000000000000000e+00 0.0000000000000000e+00 0.0000000000000000e+00  0.0000000000000000e+00 0.0000000000000000e+00 0.0000000000000000e+00  4.4522051545679830e-01 -1.9443587869727354e-02 0.0000000000000000e+00  4.4430613153736465e-01 -1.9743601396631734e-02 0.0000000000000000e+00  4.4267296904022413e-01 -2.0074397689560243e-02 0.0000000000000000e+00  4.4004588070064021e-01 -2.0318198025246651e-02 0.0000000000000000e+00  4.3098230296559009e-01 -2.0426068234333603e-02 0.0000000000000000e+00  4.2373085944587741e-01 -2.0143832825685305e-02 0.0000000000000000e+00  4.1267535073730366e-01 -1.9189150175423674e-02 0.0000000000000000e+00  3.7641650632794238e-01 -1.5315086606732085e-02 0.0000000000000000e+00  2.7970210974620158e-01 -3.5282852707422293e-03 0.0000000000000000e+00  2.5408046153620345e-01 1.7027765682101233e-03 0.0000000000000000e+00  1.4262121969891961e-01 3.5560458335258588e-02 0.0000000000000000e+00  1.2149943988328267e-01 4.8478196355735872e-02 0.0000000000000000e+00  8.8835790143798804e-02 7.1506910852917063e-02 0.0000000000000000e+00  7.9007571796186102e-02 8.0083227556898534e-02 0.0000000000000000e+00  5.2638581629473408e-02 9.1656284131909904e-02 0.0000000000000000e+00  3.0734949617651323e-02 7.2319696242008111e-02 0.0000000000000000e+00  2.7088812747309184e-02 6.2446988293732582e-02 0.0000000000000000e+00  1.8627547276348071e-02 3.5712464131743338e-02 0.0000000000000000e+00  1.4898268776027766e-02 1.9576278870964959e-02 0.0000000000000000e+00  7.5729385005639449e-03 -5.9400985433638864e-03 0.0000000000000000e+00  -1.9129248765504569e-03 4.6542604907226486e-03 0.0000000000000000e+00  2.3415086189679000e-02 -2.9461796191521002e-02 0.0000000000000000e+00  1.1582208496061525e-01 -5.8383892937546401e-02 0.0000000000000000e+00  1.4432556132229915e-01 -6.3261409590996284e-02 0.0000000000000000e+00  3.5179622906054919e-01 -8.7319953225485192e-02 0.0000000000000000e+00  4.0507729653243235e-01 -7.6269821304088672e-02 0.0000000000000000e+00  4.6492657805109633e-01 -5.7442696306888932e-02 0.0000000000000000e+00  6.4370837706891793e-01 -8.9250502281008753e-02 0.0000000000000000e+00  6.8437667252581513e-01 -3.6764111865993389e-03 0.0000000000000000e+00  6.4279540096770815e-01 4.7187050402587180e-02 0.0000000000000000e+00  5.6580222390000412e-01 1.0240076055675293e-01 0.0000000000000000e+00  5.1892706521834375e-01 1.2587475323918898e-01 0.0000000000000000e+00  3.7077010378605446e-01 1.2978416219252961e-01 0.0000000000000000e+00  3.9482145361136889e-01 -1.0923725816900073e-01 0.0000000000000000e+00  6.1450379746695905e-01 -9.1634194684827461e-02 0.0000000000000000e+00  7.1530446989067487e-01 -8.2507640698415999e-02 0.0000000000000000e+00  7.4866223907957352e-01 -3.4883506375177918e-02 0.0000000000000000e+00  7.6301222685215053e-01 -1.2547083459402962e-03 0.0000000000000000e+00  7.9190888348867683e-01 2.7417723798162753e-02 0.0000000000000000e+00  8.0617500576050571e-01 4.9332947037860932e-02 0.0000000000000000e+00  8.0703540782584149e-01 5.9408849006646364e-02 0.0000000000000000e+00  8.0512806987942265e-01 7.0527909079720119e-02 0.0000000000000000e+00  7.7423030143054850e-01 9.4011205042607404e-02 0.0000000000000000e+00  6.7626035332704304e-01 9.2503372958152127e-02 0.0000000000000000e+00  5.2035155965609414e-01 3.4505570913529383e-02 0.0000000000000000e+00  4.7403107621982771e-01 9.5208144990122524e-03 0.0000000000000000e+00  4.5502674940385457e-01 -7.0292153544933515e-03 0.0000000000000000e+00  4.4978717151397757e-01 -1.4397581843471424e-02 0.0000000000000000e+00  4.4832274748676387e-01 -1.6181632077974305e-02 0.0000000000000000e+00  4.4718776822220041e-01 -1.7418855413525117e-02 0.0000000000000000e+00  8.6146670672036152e-01 -1.6741067401001222e-01 0.0000000000000000e+00  8.5973477379782626e-01 -1.0283894557696519e-01 0.0000000000000000e+00  8.8798271923090399e-01 -3.2648139369624331e-02 0.0000000000000000e+00  9.3458018367034212e-01 1.3994211353223708e-02 0.0000000000000000e+00  9.6761208311066982e-01 3.8536184412484763e-02 0.0000000000000000e+00  9.7143591228170989e-01 5.4236046133638555e-02 0.0000000000000000e+00  9.4230182914812499e-01 7.1541127638250712e-02 0.0000000000000000e+00  9.0395994580660222e-01 1.0350223811451396e-01 0.0000000000000000e+00  8.8288264192920296e-01 1.3870305216573062e-01 0.0000000000000000e+00  7.8414515053601286e-01 1.8266700809127298e-01 0.0000000000000000e+00  7.1091324646545118e-01 1.8291185752988803e-01 0.0000000000000000e+00  6.3261262810284169e-01 1.5225273743425058e-01 0.0000000000000000e+00  5.3216477229173431e-01 1.1245151393038058e-01 0.0000000000000000e+00  4.2059836052748395e-01 8.9553687653011443e-02 0.0000000000000000e+00  3.1700484933109552e-01 8.2411763669704555e-02 0.0000000000000000e+00  2.2834297515959573e-01 6.6557030041140150e-02 0.0000000000000000e+00  1.4146044179361600e-01 4.0295344635126920e-02 0.0000000000000000e+00  6.6443999088923539e-02 2.1776356787276980e-02 0.0000000000000000e+00  6.8582170589964464e-02 -2.0662195418933767e-02 0.0000000000000000e+00  1.4976508328531921e-01 -3.9874424391016260e-02 0.0000000000000000e+00  2.4453087975445556e-01 -7.4160317654495933e-02 0.0000000000000000e+00  3.2865930933373977e-01 -1.0407718086219379e-01 0.0000000000000000e+00  4.1391785449976182e-01 -1.1735456842756310e-01 0.0000000000000000e+00  5.0681674674392374e-01 -1.3113526861688113e-01 0.0000000000000000e+00  5.9921045226266223e-01 -1.5212033036676223e-01 0.0000000000000000e+00  6.8904892073187363e-01 -1.7600881769345222e-01 0.0000000000000000e+00  7.7834537825647498e-01 -1.9794005284765767e-01 0.0000000000000000e+00  0.0000000000000000e+00 0.0000000000000000e+00 0.0000000000000000e+00  0.0000000000000000e+00 0.0000000000000000e+00 0.0000000000000000e+00  0.0000000000000000e+00 0.0000000000000000e+00 0.0000000000000000e+00  0.0000000000000000e+00 0.0000000000000000e+00 0.0000000000000000e+00  0.0000000000000000e+00 0.0000000000000000e+00 0.0000000000000000e+00  0.0000000000000000e+00 0.0000000000000000e+00 0.0000000000000000e+00  0.0000000000000000e+00 0.0000000000000000e+00 0.0000000000000000e+00  0.0000000000000000e+00 0.0000000000000000e+00 0.0000000000000000e+00  0.0000000000000000e+00 0.0000000000000000e+00 0.0000000000000000e+00  7.3695626711083362e-01 -5.8797463858735209e-02 0.0000000000000000e+00  6.6689747916551445e-01 -5.1489504073133206e-02 0.0000000000000000e+00  4.9472946427440663e-02 2.4166066839652875e-02 0.0000000000000000e+00  6.4422528591088976e-02 -2.3234446672159206e-02 0.0000000000000000e+00  6.4763108721116269e-01 1.2481091714743646e-01 0.0000000000000000e+00  4.7285689846031315e-01 4.9253841270489804e-02 0.0000000000000000e+00  8.4838359771283356e-01 3.5126925590569014e-02 0.0000000000000000e+00  3.8950878607078426e-01 -7.8841339256120149e-02 0.0000000000000000e+00  5.5652771853388679e-03 5.1513099431517171e-03 0.0000000000000000e+00  2.0803115087750765e-01 1.8116839717662984e-02 0.0000000000000000e+00  2.6201640613634986e-01 -6.3110216797520227e-02 0.0000000000000000e+00  3.1383393914968985e-02 4.1700237279318130e-03 0.0000000000000000e+00  3.9375317054012669e-02 -4.4860634542817114e-03 0.0000000000000000e+00  8.0271635445027056e-01 -1.8109847817530225e-01 0.0000000000000000e+00  8.1806661173119344e-01 1.6313412089459786e-01 0.0000000000000000e+00  6.0566012448909350e-02 1.3173930480580125e-02 0.0000000000000000e+00  6.3433561441524910e-01 -9.7948732556225437e-02 0.0000000000000000e+00  6.3426597323807443e-01 -4.5540864979344835e-02 0.0000000000000000e+00  4.4426918107292018e-01 2.7412481519273925e-02 0.0000000000000000e+00  7.0684237205814227e-01 -5.9727778106158001e-02 0.0000000000000000e+00  5.4016364312219213e-02 6.9058254972138536e-02 0.0000000000000000e+00  4.4619447615195468e-01 -1.8324565711971733e-02 0.0000000000000000e+00  1.3851706248985161e-02 -1.4517181469087559e-02 0.0000000000000000e+00  7.0374521729419981e-01 -1.2295117741451371e-01 0.0000000000000000e+00  5.2143564616912408e-01 -8.5574485970156114e-02 0.0000000000000000e+00  7.9186438509578827e-01 -2.5500961769115579e-02 0.0000000000000000e+00  6.7733040727567084e-01 -9.8148758343320364e-03 0.0000000000000000e+00  7.8984207830753328e-01 1.1079875954519348e-01 0.0000000000000000e+00  9.0945012377832146e-02 4.8564229405258322e-04 0.0000000000000000e+00  1.3134751992602847e-01 -4.3832824546082179e-03 0.0000000000000000e+00  3.7003421763811439e-01 4.8744943700282609e-02 0.0000000000000000e+00  7.4414736408465154e-01 1.5774156146940752e-01 0.0000000000000000e+00  1.6698848994441542e-02 2.0697348596259310e-02 0.0000000000000000e+00  5.6411407163677030e-01 9.7714414357058757e-02 0.0000000000000000e+00  5.9243049767192546e-01 8.9113629231687211e-02 0.0000000000000000e+00  8.8562986427410575e-02 -2.9525267093233616e-02 0.0000000000000000e+00  9.8327290529514194e-02 2.0081356985195489e-02 0.0000000000000000e+00  1.8981782330023966e-02 1.0207821645180516e-02 0.0000000000000000e+00  2.4665510463477001e-02 -9.5171294527291624e-03 0.0000000000000000e+00  3.4297561954369393e-01 -8.8393677043359931e-02 0.0000000000000000e+00  9.1583559761779842e-01 4.4752006772737461e-02 0.0000000000000000e+00  4.8245768049922855e-01 2.5687392727380680e-02 0.0000000000000000e+00  8.3414613602169119e-01 5.9876642824458245e-02 0.0000000000000000e+00  7.7936614563658457e-01 2.5212125532706256e-02 0.0000000000000000e+00  3.8443340555069833e-01 -6.5536787722373827e-02 0.0000000000000000e+00  3.9309528069264221e-03 1.0257313454579116e-03 0.0000000000000000e+00  2.2325437437708739e-01 1.2660989415368088e-02 0.0000000000000000e+00  2.8955752968681564e-01 -8.3687555086766313e-02 0.0000000000000000e+00  3.0441627345241123e-02 2.8492306766476627e-03 0.0000000000000000e+00  6.9690387053689518e-01 -7.0281951465196446e-02 0.0000000000000000e+00  6.2184610137124403e-02 4.3026346314492765e-02 0.0000000000000000e+00  6.4507939669781389e-01 -8.1834659617491951e-02 0.0000000000000000e+00  6.1678874832059927e-01 -7.7869665425453746e-02 0.0000000000000000e+00  5.6837467675718667e-01 2.9072272374437307e-02 0.0000000000000000e+00  6.3142377582789777e-01 -8.8427395437183517e-02 0.0000000000000000e+00  3.6781574058800182e-01 -6.6448018653576307e-03 0.0000000000000000e+00  7.2421326456380075e-01 -5.5029206937838519e-02 0.0000000000000000e+00  6.5410542890367951e-01 -5.9479930112054824e-02 0.0000000000000000e+00  7.1487937353414321e-01 -7.1594166919334262e-02 0.0000000000000000e+00  6.4839797507005381e-01 7.3561947801808417e-03 0.0000000000000000e+00  4.1005466514058236e-01 9.1731425923020291e-02 0.0000000000000000e+00  4.7247781516681503e-01 -3.7903969964734552e-02 0.0000000000000000e+00  4.1322933470510734e-02 6.1901372307532822e-02 0.0000000000000000e+00  6.0461469378479064e-02 8.0662821268313367e-02 0.0000000000000000e+00  4.5150774105646004e-02 7.7906305918990296e-02 0.0000000000000000e+00  4.4287300887602182e-01 -1.9106840604457765e-02 0.0000000000000000e+00  4.4743270322652384e-01 -1.7427042217073637e-02 0.0000000000000000e+00  4.4557690139404954e-01 -1.9037772786133493e-02 0.0000000000000000e+00  5.6103673083414496e-01 -4.0685175459822615e-02 0.0000000000000000e+00  7.6700803175878896e-01 -7.1393785502536708e-02 0.0000000000000000e+00  1.2896396317609615e-02 1.1050153559041756e-02 0.0000000000000000e+00  8.8522231210066649e-01 6.8429235776498731e-02 0.0000000000000000e+00  4.5587896803341160e-02 4.7379910765490045e-03 0.0000000000000000e+00  6.3623485993412698e-01 -1.3429341621579297e-01 0.0000000000000000e+00  8.7151886639308773e-01 1.2546752242663889e-02 0.0000000000000000e+00  7.3624993282902451e-01 -4.2169835618925625e-03 0.0000000000000000e+00  1.5182244843525811e-01 2.6747734871071023e-02 0.0000000000000000e+00  5.2262836478562461e-03 -4.6085257838955739e-03 0.0000000000000000e+00  1.3439239771433981e-01 -1.0650192582215324e-02 0.0000000000000000e+00  1.6450729337759065e-02 -1.1676340690457443e-02 0.0000000000000000e+00  8.0157434420969709e-01 1.3420782128740297e-01 0.0000000000000000e+00  4.7072619851659214e-01 -1.0033578322995443e-01 0.0000000000000000e+00  3.6132570901140033e-02 -3.7031584132964294e-03 0.0000000000000000e+00  3.8141551413388930e-01 1.4228713760323451e-02 0.0000000000000000e+00  7.8209743936307097e-01 -1.4407218823677834e-01 0.0000000000000000e+00  4.3468710859129328e-01 6.7189335847284454e-02 0.0000000000000000e+00  1.9175873765582330e-01 -1.9337262403334554e-02 0.0000000000000000e+00  7.1003184558950327e-01 1.1038323474401880e-01 0.0000000000000000e+00  6.5799496537250690e-01 1.5237825172032321e-01 0.0000000000000000e+00  2.7393225934441701e-01 5.5708778402258477e-02 0.0000000000000000e+00  4.3990093376926973e-03 -7.7000385571836328e-03 0.0000000000000000e+00  7.2865646189472977e-01 -1.6393791008675912e-01 0.0000000000000000e+00  6.6604643978285061e-01 -3.5247646025101539e-02 0.0000000000000000e+00  2.0952077151143660e-02 -2.3958840322404796e-02 0.0000000000000000e+00  2.1064149873217111e-01 -4.7320289055250181e-02 0.0000000000000000e+00  3.1669644409707853e-01 -7.8507761738796839e-02 0.0000000000000000e+00  7.2048147534029294e-01 -2.1011225732107748e-03 0.0000000000000000e+00  6.2938005325373289e-02 7.0923214687683639e-03 0.0000000000000000e+00  2.4137748383438771e-02 1.3238242681537421e-02 0.0000000000000000e+00  8.1269697135574004e-01 5.1543372248366415e-02 0.0000000000000000e+00  5.3204907741009777e-01 6.2225271527631791e-02 0.0000000000000000e+00  3.4075765557199170e-03 1.1381292346159547e-02 0.0000000000000000e+00  4.2540321230055016e-02 2.6586443623305762e-02 0.0000000000000000e+00  5.9765774135684124e-01 1.0521815904284203e-01 0.0000000000000000e+00  5.4223057587690915e-01 5.3125518030622890e-02 0.0000000000000000e+00  6.1373914829814258e-01 8.9071528466300703e-02 0.0000000000000000e+00  3.6304992525296298e-01 -9.9964861611142639e-02 0.0000000000000000e+00  7.9261798651952886e-01 7.3799168390742520e-02 0.0000000000000000e+00  2.9576842047932561e-01 -7.9185946764690374e-02 0.0000000000000000e+00  1.0340623185678670e-01 -1.8517136885443652e-02 0.0000000000000000e+00  9.5873332249823265e-02 1.5134569798119072e-03 0.0000000000000000e+00  4.7034934723195349e-01 5.1053679624506873e-03 0.0000000000000000e+00  4.0352553633490051e-01 -5.5983285574362190e-02 0.0000000000000000e+00  2.6684355213236338e-01 1.5960852560452186e-02 0.0000000000000000e+00  7.2888905051817543e-01 -3.4917995632234987e-02 0.0000000000000000e+00  3.849025392