<?xml version="1.0"?>
<VTKFile type="UnstructuredGrid"  version="0.1"  >
<UnstructuredGrid>
<Piece  NumberOfPoints="2868" NumberOfCells="5400">
<Points>
<DataArray  type="Float64"  NumberOfComponents="3"  format="ascii">0.534923 0.326073 0  0.510642 0.314196 0  0.466125 0.293082 0  0.436448 0.281205 0  0.409468 0.275927 0  0.368998 0.270648 0  0.35281 0.275927 0  0.381139 0.302319 0  0.405421 0.326073 0  0.410817 0.33531 0  0.408119 0.349826 0  0.400025 0.357744 0  0.375743 0.368301 0  0.329878 0.392055 0  0.297502 0.432963 0  0.282663 0.476511 0  0.285361 0.524018 0  0.298851 0.572845 0  0.317737 0.6045160000000001 0  0.337972 0.6361869999999999 0  0.360904 0.674457 0  0.368998 0.69953 0  0.359555 0.7219640000000001 0  0.360904 0.757594 0  0.370347 0.766831 0  0.381139 0.762872 0  0.390582 0.741758 0  0.404072 0.720644 0  0.424307 0.707448 0  0.447239 0.702169 0  0.480964 0.704808 0  0.479615 0.6889729999999999 0  0.468823 0.675776 0  0.447239 0.6691780000000001 0  0.428354 0.6691780000000001 0  0.410817 0.6639 0  0.404072 0.653343 0  0.395978 0.628269 0  0.387884 0.59132 0  0.389233 0.576804 0  0.397327 0.557009 0  0.410817 0.547772 0  0.424307 0.546452 0  0.437797 0.55305 0  0.44589 0.5662469999999999 0  0.441843 0.582082 0  0.439145 0.5979179999999999 0  0.449937 0.609795 0  0.468823 0.603196 0  0.479615 0.59 0  0.489058 0.570205 0  0.494454 0.546452 0  0.505246 0.522699 0  0.522783 0.509502 0  0.55246 0.494986 0  0.586185 0.484429 0  0.615863 0.48047 0  0.64554 0.473872 0  0.6671240000000001 0.461995 0  0.683312 0.451438 0  0.696802 0.435603 0  0.703547 0.417128 0  0.7116400000000001 0.393374 0  0.7183850000000001 0.37226 0  0.7251300000000001 0.364342 0  0.739969 0.353785 0  0.7453650000000001 0.344548 0  0.7453650000000001 0.327393 0  0.737271 0.318155 0  0.7183850000000001 0.316835 0  0.7008490000000001 0.319475 0  0.677916 0.318155 0  0.650936 0.316835 0  0.610467 0.318155 0  0.57944 0.324753 0  0.559205 0.328712 0  0.5389699999999999 0.326073 0  1 1 0  1 0 0  0 0 0  0 1 0  0.532238 0.32476 0  0.528748 0.323052 0  0.52421 0.320833 0  0.518311 0.317947 0  0.503447 0.310783 0  0.494093 0.306347 0  0.481933 0.30058 0  0.452151 0.28749 0  0.392327 0.273691 0  0.379141 0.271971 0  0.360474 0.283066 0  0.369797 0.291752 0  0.391424 0.31238 0  0.399335 0.32012 0  0.40958 0.341964 0  0.393939 0.36039 0  0.386028 0.36383 0  0.364248 0.374254 0  0.349304 0.381994 0  0.315801 0.409841 0  0.292986 0.551616 0  0.350934 0.657818 0  0.360127 0.737055 0  0.360566 0.748664 0  0.385245 0.753692 0  0.396447 0.732578 0  0.466301 0.703661 0  0.459439 0.672908 0  0.418442 0.666195 0  0.400553 0.642441 0  0.39255 0.612619 0  0.389913 0.60058 0  0.392752 0.568197 0  0.444131 0.573132 0  0.458149 0.606926 0  0.5005540000000001 0.533026 0  0.571522 0.489019 0  0.632637 0.476741 0  0.689177 0.444553 0  0.708121 0.403702 0  0.715453 0.38144 0  0.732406 0.359166 0  0.7453650000000001 0.337089 0  0.72906 0.317581 0  0.629879 0.317522 0  0.59293 0.321884 0  0.568003 0.326991 0  0.55202 0.327775 0  0.546493 0.327054 0  0.542241 0.326499 0  1 0.9 0  1 0.8 0  1 0.7 0  1 0.6 0  1 0.5 0  1 0.4 0  1 0.3 0  1 0.2 0  1 0.1 0  0.9 0 0  0.8 0 0  0.7 0 0  0.6 0 0  0.5 0 0  0.4 0 0  0.3 0 0  0.2 0 0  0.1 0 0  0.1 1 0  0.2 1 0  0.3 1 0  0.4 1 0  0.5 1 0  0.6 1 0  0.7 1 0  0.8 1 0  0.9 1 0  0 0.1 0  0 0.2 0  0 0.3 0  0 0.4 0  0 0.5 0  0 0.6 0  0 0.7 0  0 0.8 0  0 0.9 0  0.535686 0.5031910000000001 0  0.753987 0.733359 0  0.167145 0.741436 0  0.173378 0.257204 0  0.733497 0.159862 0  0.554096 0.15788 0  0.849187 0.479053 0  0.488793 0.838452 0  0.138507 0.5592 0  0.30686 0.154944 0  0.348904 0.890523 0  0.058006 0.065099 0  0.06984899999999999 0.937917 0  0.93633 0.939704 0  0.934625 0.053613 0  0.343397 0.333452 0  0.473272 0.639943 0  0.433266 0.638072 0  0.415174 0.58269 0  0.533435 0.545042 0  0.390848 0.340652 0  0.53655 0.320242 0  0.127966 0.393775 0  0.83861 0.850455 0  0.635242 0.8551299999999999 0  0.852158 0.633441 0  0.653427 0.626848 0  0.861226 0.24292 0  0.166128 0.12976 0  0.216875 0.8698709999999999 0  0.458305 0.11179 0  0.84446 0.101633 0  0.202024 0.642528 0  0.644825 0.115855 0  0.671342 0.218358 0  0.251354 0.286186 0  0.262388 0.75153 0  0.063044 0.751571 0  0.068189 0.242962 0  0.435781 0.9053949999999999 0  0.934144 0.451133 0  0.568393 0.237622 0  0.814984 0.395506 0  0.752951 0.517227 0  0.456254 0.780699 0  0.073352 0.531116 0  0.337731 0.206071 0  0.363213 0.960371 0  0.330742 0.363592 0  0.516613 0.55705 0  0.369057 0.332992 0  0.500926 0.617309 0  0.498004 0.665534 0  0.412142 0.61178 0  0.454233 0.6366039999999999 0  0.422782 0.567496 0  0.541193 0.5214800000000001 0  0.439761 0.65557 0  0.5163 0.533672 0  0.414775 0.64562 0  0.40073 0.576135 0  0.430362 0.5880339999999999 0  0.385432 0.351492 0  0.400298 0.335397 0  0.398325 0.348194 0  0.528702 0.314885 0  0.540814 0.322334 0  0.534477 0.322953 0  0.619095 0.743583 0  0.885162 0.737972 0  0.08076 0.668849 0  0.90734 0.36634 0  0.09468699999999999 0.868937 0  0.759838 0.912152 0  0.901518 0.540898 0  0.747285 0.607479 0  0.229182 0.071641 0  0.06915399999999999 0.450091 0  0.244775 0.203309 0  0.076534 0.331755 0  0.897847 0.167826 0  0.578909 0.911415 0  0.07713299999999999 0.146341 0  0.477215 0.203448 0  0.922631 0.869341 0  0.517415 0.074785 0  0.297026 0.827793 0  0.7832710000000001 0.246505 0  0.74519 0.061079 0  0.36033 0.069068 0  0.210313 0.475228 0  0.859426 0.928758 0  0.5745479999999999 0.609182 0  0.243069 0.383398 0  0.283099 0.934598 0  0.417416 0.843141 0  0.643942 0.553164 0  0.112687 0.079336 0  0.281357 0.658386 0  0.765043 0.436177 0  0.611361 0.198486 0  0.234496 0.58911 0  0.206479 0.702638 0  0.679608 0.155818 0  0.62682 0.259978 0  0.690538 0.264164 0  0.448938 0.956308 0  0.808154 0.328403 0  0.379583 0.91913 0  0.308083 0.297769 0  0.312358 0.730249 0  0.563101 0.278576 0  0.435597 0.746198 0  0.385475 0.225229 0  0.572248 0.518034 0  0.357864 0.35422 0  0.497647 0.641694 0  0.458101 0.655768 0  0.360474 0.310727 0  0.467038 0.620139 0  0.47798 0.659909 0  0.41102 0.628072 0  0.48324 0.609015 0  0.427544 0.617941 0  0.388633 0.328253 0  0.405336 0.599404 0  0.408351 0.565178 0  0.42395 0.600985 0  0.431562 0.576523 0  0.424905 0.6551979999999999 0  0.398064 0.58782 0  0.427739 0.557934 0  0.5192909999999999 0.303443 0  0.53142 0.320293 0  0.5449000000000001 0.323642 0  0.537166 0.323513 0  0.153974 0.920841 0  0.9181859999999999 0.67343 0  0.759946 0.820588 0  0.5375259999999999 0.783091 0  0.816532 0.545843 0  0.813991 0.178083 0  0.836774 0.702023 0  0.149815 0.318856 0  0.662287 0.923338 0  0.680146 0.791192 0  0.708961 0.663172 0  0.9372779999999999 0.287318 0  0.574622 0.6881660000000001 0  0.5894740000000001 0.076262 0  0.502822 0.926683 0  0.222269 0.811068 0  0.380457 0.164786 0  0.15321 0.684154 0  0.458063 0.051413 0  0.161702 0.056026 0  0.199351 0.198818 0  0.298946 0.09553200000000001 0  0.902465 0.795949 0  0.121139 0.791477 0  0.906269 0.112287 0  0.056109 0.822332 0  0.512172 0.13237 0  0.940964 0.741805 0  0.888887 0.408777 0  0.354543 0.825964 0  0.808736 0.068638 0  0.068507 0.394071 0  0.719105 0.563843 0  0.247287 0.149664 0  0.293062 0.237128 0  0.240524 0.434997 0  0.141255 0.623289 0  0.945202 0.160621 0  0.502914 0.247629 0  0.144669 0.480811 0  0.665025 0.060817 0  0.728047 0.224344 0  0.861995 0.313312 0  0.200068 0.534235 0  0.253262 0.965623 0  0.893804 0.49307 0  0.604391 0.572456 0  0.947088 0.345347 0  0.439372 0.227307 0  0.629847 0.159823 0  0.273405 0.880181 0  0.302744 0.776823 0  0.781502 0.295365 0  0.275342 0.349602 0  0.7283849999999999 0.472798 0  0.229136 0.246478 0  0.807794 0.480346 0  0.709476 0.112786 0  0.275506 0.694991 0  0.771674 0.394419 0  0.449715 0.861802 0  0.419159 0.799696 0  0.674851 0.503139 0  0.280443 0.61016 0  0.572443 0.192538 0  0.393113 0.87525 0  0.405555 0.948428 0  0.330942 0.934103 0  0.540509 0.597101 0  0.312763 0.6689310000000001 0  0.254368 0.540179 0  0.595265 0.25915 0  0.606679 0.234099 0  0.657131 0.279138 0  0.722458 0.279478 0  0.333 0.308056 0  0.351529 0.246142 0  0.455714 0.7257940000000001 0  0.585239 0.295143 0  0.340062 0.72492 0  0.545593 0.293773 0  0.555449 0.545426 0  0.414311 0.737314 0  0.590854 0.502323 0  0.350507 0.368444 0  0.484423 0.625665 0  0.483899 0.674542 0  0.378137 0.317274 0  0.446416 0.646404 0  0.373532 0.347654 0  0.446876 0.619769 0  0.466106 0.666068 0  0.437545 0.609254 0  0.434988 0.565726 0  0.41462 0.656829 0  0.418803 0.556961 0  0.398425 0.327446 0  0.517803 0.310421 0  0.549516 0.322918 0  0.57701 0.842889 0  0.8291269999999999 0.773906 0  0.643235 0.684732 0  0.134281 0.207734 0  0.865997 0.055966 0  0.680959 0.723345 0  0.165229 0.8415550000000001 0  0.54558 0.959672 0  0.783726 0.656439 0  0.913315 0.595533 0  0.699439 0.860667 0  0.785839 0.125076 0  0.551673 0.037713 0  0.9200970000000001 0.223214 0  0.206406 0.299726 0  0.087064 0.596401 0  0.935644 0.394252 0  0.964557 0.252582 0  0.230124 0.928346 0  0.120579 0.271764 0  0.8572149999999999 0.524082 0  0.7670979999999999 0.5551469999999999 0  0.936094 0.507131 0  0.804064 0.59585 0  0.700565 0.608273 0  0.429773 0.174231 0  0.117746 0.727333 0  0.5389620000000001 0.730231 0  0.862761 0.359173 0  0.821444 0.284046 0  0.193552 0.35818 0  0.234923 0.505555 0  0.193209 0.421217 0  0.220144 0.755896 0  0.594015 0.131642 0  0.283813 0.195855 0  0.517519 0.213961 0  0.553509 0.639116 0  0.280391 0.378018 0  0.852183 0.436817 0  0.746983 0.197173 0  0.821806 0.221318 0  0.449853 0.828453 0  0.883758 0.453926 0  0.183484 0.589542 0  0.348384 0.129314 0  0.255254 0.838525 0  0.504849 0.798516 0  0.320344 0.863432 0  0.611669 0.525425 0  0.265864 0.804962 0  0.72056 0.521442 0  0.613372 0.6101220000000001 0  0.481262 0.881068 0  0.655778 0.191988 0  0.701921 0.196918 0  0.5658260000000001 0.5731810000000001 0  0.46914 0.240927 0  0.343219 0.173284 0  0.888786 0.278502 0  0.244113 0.6750930000000001 0  0.739546 0.417914 0  0.784023 0.355942 0  0.326805 0.265549 0  0.248616 0.6
[...]
<PointData  Vectors="f_21"> 
<DataArray  type="Float64"  Name="f_21"  NumberOfComponents="3" format="ascii">1.0960997144730484e+00 1.7161099797138019e-01 0.0000000000000000e+00  1.0628523995832340e+00 1.8759410748495650e-01 0.0000000000000000e+00  9.5467492227474438e-01 2.1455043354239353e-01 0.0000000000000000e+00  8.5447246248770659e-01 2.2478739891909708e-01 0.0000000000000000e+00  7.5679866722257627e-01 2.2445816185556156e-01 0.0000000000000000e+00  5.8305497714969701e-01 2.2786346143779032e-01 0.0000000000000000e+00  4.7626453776714839e-01 2.1823324957766443e-01 0.0000000000000000e+00  3.4502729490200773e-01 3.1468407939090814e-01 0.0000000000000000e+00  2.7587893221319526e-01 3.8053889431682913e-01 0.0000000000000000e+00  2.4945825592727988e-01 3.9605813980321164e-01 0.0000000000000000e+00  2.0746143148360138e-01 3.8825501905758814e-01 0.0000000000000000e+00  1.8428848567002357e-01 3.6446495591768696e-01 0.0000000000000000e+00  1.5507190356013278e-01 2.9072452930161513e-01 0.0000000000000000e+00  1.0960250981526017e-01 1.5378743171443895e-01 0.0000000000000000e+00  5.9361970134687872e-02 6.1959718155065652e-02 0.0000000000000000e+00  2.9200028166140191e-02 -5.6640211303953065e-03 0.0000000000000000e+00  2.6766152853485787e-02 -6.9775115436459340e-02 0.0000000000000000e+00  5.0465835713719265e-02 -1.3958099543609814e-01 0.0000000000000000e+00  8.3147433808980584e-02 -2.0100089269987148e-01 0.0000000000000000e+00  1.2969180797895871e-01 -2.6556872995620412e-01 0.0000000000000000e+00  2.0857492610352651e-01 -3.4480683547182595e-01 0.0000000000000000e+00  2.7323504325129233e-01 -3.7684238576888573e-01 0.0000000000000000e+00  3.3773073206661386e-01 -3.6610553016164232e-01 0.0000000000000000e+00  5.3691866873647898e-01 -3.9533108352243862e-01 0.0000000000000000e+00  6.9648442024159751e-01 -4.3327936049229054e-01 0.0000000000000000e+00  8.2718247881600804e-01 -4.3534593188660997e-01 0.0000000000000000e+00  1.0190064025556085e+00 -4.2526500078804524e-01 0.0000000000000000e+00  1.1140813457221705e+00 -3.8313705589742408e-01 0.0000000000000000e+00  1.1559677044981216e+00 -3.3527831655207257e-01 0.0000000000000000e+00  1.1763430492516556e+00 -2.9858043620059888e-01 0.0000000000000000e+00  1.2349359111197036e+00 -2.9351760134029398e-01 0.0000000000000000e+00  1.3250464932631185e+00 -3.1510093306959808e-01 0.0000000000000000e+00  1.3663684340220363e+00 -3.4607834833172946e-01 0.0000000000000000e+00  1.3790038222704641e+00 -4.0725010864861966e-01 0.0000000000000000e+00  1.3759064825221630e+00 -4.6356841575981000e-01 0.0000000000000000e+00  1.3905703399341465e+00 -5.1512457077806384e-01 0.0000000000000000e+00  1.4206943787069750e+00 -5.3462667961523214e-01 0.0000000000000000e+00  1.4914138020857064e+00 -5.5846951099520947e-01 0.0000000000000000e+00  1.5945211841508053e+00 -5.8204181981178527e-01 0.0000000000000000e+00  1.6344966224999580e+00 -5.7838929465405242e-01 0.0000000000000000e+00  1.6888910723422506e+00 -5.5625071265455495e-01 0.0000000000000000e+00  1.7145021147257125e+00 -5.1896326295556272e-01 0.0000000000000000e+00  1.7182799589928479e+00 -4.8125303835142680e-01 0.0000000000000000e+00  1.6997936353403067e+00 -4.4326105670327753e-01 0.0000000000000000e+00  1.6628349983548347e+00 -4.2050002547118132e-01 0.0000000000000000e+00  1.6191701950276551e+00 -4.3112720939502075e-01 0.0000000000000000e+00  1.5765453385619186e+00 -4.3552774140822759e-01 0.0000000000000000e+00  1.5428828836531956e+00 -3.9832683179449274e-01 0.0000000000000000e+00  1.5564156019558160e+00 -3.3567645865240825e-01 0.0000000000000000e+00  1.5809039335791022e+00 -3.0013547663070111e-01 0.0000000000000000e+00  1.6131321631570217e+00 -2.6962456298794590e-01 0.0000000000000000e+00  1.6488324448876903e+00 -2.5242939387901286e-01 0.0000000000000000e+00  1.6841589666513606e+00 -2.3125501862250272e-01 0.0000000000000000e+00  1.7029538672791409e+00 -2.0136634808372422e-01 0.0000000000000000e+00  1.7209190835878723e+00 -1.5267296114636378e-01 0.0000000000000000e+00  1.7314547871090908e+00 -1.0078535884717790e-01 0.0000000000000000e+00  1.7324201755447892e+00 -5.7895832207062771e-02 0.0000000000000000e+00  1.7352348558675088e+00 -1.5962035248640597e-02 0.0000000000000000e+00  1.7423174397277510e+00 1.5235334692149381e-02 0.0000000000000000e+00  1.7445855051966386e+00 4.2687013722324439e-02 0.0000000000000000e+00  1.7431647726997648e+00 7.0798394294843525e-02 0.0000000000000000e+00  1.7337324188285399e+00 9.2456868293834912e-02 0.0000000000000000e+00  1.7149642787787558e+00 1.1346698521781108e-01 0.0000000000000000e+00  1.6930899202473890e+00 1.2359754235192948e-01 0.0000000000000000e+00  1.6855019257543227e+00 1.2405105255958526e-01 0.0000000000000000e+00  1.6664040529628932e+00 1.3249979999978567e-01 0.0000000000000000e+00  1.6374036037123236e+00 1.4121441638399568e-01 0.0000000000000000e+00  1.5590327566420288e+00 1.5458493922392799e-01 0.0000000000000000e+00  1.4880825054907814e+00 1.6414739183232574e-01 0.0000000000000000e+00  1.4133879762360149e+00 1.6163943775537634e-01 0.0000000000000000e+00  1.3710595554669971e+00 1.5937637095527579e-01 0.0000000000000000e+00  1.3257846024515763e+00 1.6506040128053590e-01 0.0000000000000000e+00  1.2670626013143429e+00 1.7199038352535809e-01 0.0000000000000000e+00  1.1814988959546173e+00 1.7479400396397571e-01 0.0000000000000000e+00  1.1292362067720296e+00 1.6767319110060491e-01 0.0000000000000000e+00  1.1114543104558476e+00 1.6516650827560647e-01 0.0000000000000000e+00  1.0978969931038027e+00 1.6998525356770294e-01 0.0000000000000000e+00  1.4475854006541680e+00 1.6213471131953516e-01 0.0000000000000000e+00  1.4562716589909268e+00 5.5694457211933175e-02 0.0000000000000000e+00  0.0000000000000000e+00 0.0000000000000000e+00 0.0000000000000000e+00  0.0000000000000000e+00 0.0000000000000000e+00 0.0000000000000000e+00  1.0940577868320664e+00 1.7331869349468049e-01 0.0000000000000000e+00  1.0903610206919063e+00 1.7559884598614295e-01 0.0000000000000000e+00  1.0845679351726243e+00 1.7857991143407537e-01 0.0000000000000000e+00  1.0759293478121172e+00 1.8254108876780181e-01 0.0000000000000000e+00  1.0492156531966332e+00 1.9214752505126800e-01 0.0000000000000000e+00  1.0293748250412595e+00 1.9812314620501167e-01 0.0000000000000000e+00  1.0003184852885982e+00 2.0551925321775144e-01 0.0000000000000000e+00  9.1135942083108690e-01 2.2055721338014558e-01 0.0000000000000000e+00  6.9394129080019429e-01 2.2378474183136471e-01 0.0000000000000000e+00  6.4008898170010731e-01 2.2515080891007624e-01 0.0000000000000000e+00  4.2151036554961513e-01 2.5762612722378031e-01 0.0000000000000000e+00  3.8142695218923717e-01 2.8498456374424447e-01 0.0000000000000000e+00  3.1478291967816824e-01 3.4154574786951880e-01 0.0000000000000000e+00  2.9276499815354939e-01 3.6332670305462039e-01 0.0000000000000000e+00  2.3029763005801018e-01 3.9250654928562578e-01 0.0000000000000000e+00  1.7657081793186674e-01 3.4626740809222722e-01 0.0000000000000000e+00  1.6682133949180158e-01 3.2231136983448994e-01 0.0000000000000000e+00  1.4073773272850235e-01 2.5526255355093591e-01 0.0000000000000000e+00  1.2525491485763954e-01 2.1038001646080676e-01 0.0000000000000000e+00  8.5192080326261521e-02 1.1286023044424927e-01 0.0000000000000000e+00  3.7417970892321420e-02 -1.0807785848817035e-01 0.0000000000000000e+00  1.7068192279968300e-01 -3.1013318253426325e-01 0.0000000000000000e+00  3.9837232037658799e-01 -3.8353196144656909e-01 0.0000000000000000e+00  4.6224931320571783e-01 -3.9555883181989632e-01 0.0000000000000000e+00  9.3766365468926627e-01 -4.3963694865447656e-01 0.0000000000000000e+00  1.0664895322610621e+00 -4.0597901572988021e-01 0.0000000000000000e+00  1.1948682104051758e+00 -2.8455845018624881e-01 0.0000000000000000e+00  1.3720019496669318e+00 -3.7208851227046286e-01 0.0000000000000000e+00  1.3840525116230213e+00 -4.9285764783993358e-01 0.0000000000000000e+00  1.4515431814155819e+00 -5.4497539111904991e-01 0.0000000000000000e+00  1.5353371786177836e+00 -5.6871479256867186e-01 0.0000000000000000e+00  1.5688893308824645e+00 -5.7633466507916653e-01 0.0000000000000000e+00  1.6581048337156712e+00 -5.6876153600951895e-01 0.0000000000000000e+00  1.6437373770940449e+00 -4.2529924342226549e-01 0.0000000000000000e+00  1.5499005788493245e+00 -3.7083463430109270e-01 0.0000000000000000e+00  1.6686473834414806e+00 -2.4004319767959725e-01 0.0000000000000000e+00  1.7269498703582047e+00 -1.2290558663550083e-01 0.0000000000000000e+00  1.7343412146057182e+00 -3.4306766569072056e-02 0.0000000000000000e+00  1.7448900689454694e+00 5.5147277995339195e-02 0.0000000000000000e+00  1.7241507030146599e+00 1.0529523416905222e-01 0.0000000000000000e+00  1.7026188698284910e+00 1.2073399763713680e-01 0.0000000000000000e+00  1.6778082220245449e+00 1.2663486881779742e-01 0.0000000000000000e+00  1.6077025251368746e+00 1.5293123657970084e-01 0.0000000000000000e+00  1.4510552751925179e+00 1.6189774612638266e-01 0.0000000000000000e+00  1.2215392712062481e+00 1.7386345092831665e-01 0.0000000000000000e+00  1.1480229843426439e+00 1.7095420512225123e-01 0.0000000000000000e+00  1.1175241420341777e+00 1.6565193575445097e-01 0.0000000000000000e+00  1.1073268366891227e+00 1.6622504251608752e-01 0.0000000000000000e+00  1.1033658040028700e+00 1.6763875334921471e-01 0.0000000000000000e+00  1.1002547433633876e+00 1.6888635629976703e-01 0.0000000000000000e+00  1.5544046519616801e+00 1.7715240434528207e-01 0.0000000000000000e+00  1.6487053379493719e+00 1.7499262227402476e-01 0.0000000000000000e+00  1.7451054673818820e+00 1.5662258950913605e-01 0.0000000000000000e+00  1.8350505419394196e+00 1.1716848563071945e-01 0.0000000000000000e+00  1.8849998242699699e+00 4.8459535765479157e-02 0.0000000000000000e+00  1.8514098750893786e+00 -2.1132581378955510e-02 0.0000000000000000e+00  1.7391411943604149e+00 -5.1477906008771709e-02 0.0000000000000000e+00  1.6174326492186453e+00 -2.6312414890321295e-02 0.0000000000000000e+00  1.5269197378127688e+00 1.8540433867622001e-02 0.0000000000000000e+00  1.3578044122127968e+00 1.2759871561007383e-01 0.0000000000000000e+00  1.2527600318397185e+00 2.0011324673143713e-01 0.0000000000000000e+00  1.1445668370579052e+00 2.7247620079614571e-01 0.0000000000000000e+00  1.0240886393870063e+00 3.3268471949657086e-01 0.0000000000000000e+00  8.9336602957391431e-01 3.7438285074235073e-01 0.0000000000000000e+00  7.6523969703180106e-01 3.6934465350653078e-01 0.0000000000000000e+00  6.1945545454778894e-01 2.9863036886524053e-01 0.0000000000000000e+00  4.4210138177977271e-01 2.0570192180801555e-01 0.0000000000000000e+00  2.3972295511118846e-01 1.2658100377561343e-01 0.0000000000000000e+00  2.7700424943762064e-01 -1.7567026971025773e-01 0.0000000000000000e+00  4.8735327909579779e-01 -3.0882347833232088e-01 0.0000000000000000e+00  6.5248283420633735e-01 -4.2557219234523141e-01 0.0000000000000000e+00  7.7698880827731487e-01 -4.6423651000531174e-01 0.0000000000000000e+00  8.9770563270941517e-01 -4.0142438423152449e-01 0.0000000000000000e+00  1.0333294052278801e+00 -2.9793221625689759e-01 0.0000000000000000e+00  1.1578256943667138e+00 -1.9165322507455004e-01 0.0000000000000000e+00  1.2592328971027698e+00 -7.8477527106115663e-02 0.0000000000000000e+00  1.3522425557060722e+00 4.5909585239634954e-02 0.0000000000000000e+00  0.0000000000000000e+00 0.0000000000000000e+00 0.0000000000000000e+00  0.0000000000000000e+00 0.0000000000000000e+00 0.0000000000000000e+00  0.0000000000000000e+00 0.0000000000000000e+00 0.0000000000000000e+00  0.0000000000000000e+00 0.0000000000000000e+00 0.0000000000000000e+00  0.0000000000000000e+00 0.0000000000000000e+00 0.0000000000000000e+00  0.0000000000000000e+00 0.0000000000000000e+00 0.0000000000000000e+00  0.0000000000000000e+00 0.0000000000000000e+00 0.0000000000000000e+00  0.0000000000000000e+00 0.0000000000000000e+00 0.0000000000000000e+00  0.0000000000000000e+00 0.0000000000000000e+00 0.0000000000000000e+00  1.7110027471796514e+00 -1.7983594564199021e-01 0.0000000000000000e+00  1.5192041349533540e+00 -1.5299625870626391e-02 0.0000000000000000e+00  1.8622992183369916e-01 -7.2179166425879043e-02 0.0000000000000000e+00  2.1826629850862117e-01 1.6044047116697508e-02 0.0000000000000000e+00  1.2865915577650633e+00 1.9991964664720263e-01 0.0000000000000000e+00  1.0172036307538936e+00 2.7659933410109322e-01 0.0000000000000000e+00  1.7899245270458466e+00 5.7007697416427749e-02 0.0000000000000000e+00  9.7591872494014564e-01 -3.2880902281698232e-01 0.0000000000000000e+00  2.4961097106918222e-02 -1.9969792525797347e-02 0.0000000000000000e+00  5.4778773121834723e-01 2.1501100667201256e-01 0.0000000000000000e+00  6.9126055994324842e-01 -4.0722681246242176e-01 0.0000000000000000e+00  1.0998802627177302e-01 4.4662155583511901e-02 0.0000000000000000e+00  1.4430735868211342e-01 -8.5209074779067362e-02 0.0000000000000000e+00  1.4568277953647522e+00 1.0489474729162429e-01 0.0000000000000000e+00  1.4299442147607049e+00 8.4419187457373077e-02 0.0000000000000000e+00  2.4736614619132366e-01 1.9822326134137369e-01 0.0000000000000000e+00  1.4630002099820951e+00 -3.2892076567028872e-01 0.0000000000000000e+00  1.4639621353995440e+00 -4.4881641693077351e-01 0.0000000000000000e+00  1.6182026829103999e+00 -5.0579825251193899e-01 0.0000000000000000e+00  1.6506921542695399e+00 -1.8451392497801744e-01 0.0000000000000000e+00  2.3374030204245885e-01 3.3771095758213160e-01 0.0000000000000000e+00  1.0922030175844510e+00 1.7203744296354648e-01 0.0000000000000000e+00  5.8989431375748455e-02 -3.5937688472604278e-02 0.0000000000000000e+00  1.4672093080029642e+00 1.5492919558849162e-02 0.0000000000000000e+00  1.2145268837000638e+00 -1.8485332188934928e-01 0.0000000000000000e+00  1.7069086649282921e+00 5.1617162621474137e-02 0.0000000000000000e+00  1.5647185233240601e+00 -3.6134788605353040e-02 0.0000000000000000e+00  1.5293377275044899e+00 7.4340658460534073e-02 0.0000000000000000e+00  2.9222278601566642e-01 9.3642993464661831e-02 0.0000000000000000e+00  4.0341075809855137e-01 -2.3162426223276747e-01 0.0000000000000000e+00  8.3746496741358767e-01 3.2282104956757302e-01 0.0000000000000000e+00  1.3712391614266792e+00 1.3431266751558715e-01 0.0000000000000000e+00  1.0304723554988147e-01 -6.0485374288710717e-02 0.0000000000000000e+00  1.1416711485214828e+00 2.6343812851304099e-01 0.0000000000000000e+00  1.2463620236000492e+00 2.1628223031466745e-01 0.0000000000000000e+00  2.9294430070573935e-01 5.2901670109260994e-02 0.0000000000000000e+00  3.3992959636918457e-01 -1.7256946846193413e-01 0.0000000000000000e+00  6.5244175959349726e-02 -1.1240572442878056e-02 0.0000000000000000e+00  8.1621845728389764e-02 -9.0677815598649222e-03 0.0000000000000000e+00  8.4286572776573609e-01 -4.1107399210926698e-01 0.0000000000000000e+00  1.8361312274716115e+00 3.1636732600840052e-02 0.0000000000000000e+00  1.0826412586935514e+00 2.2108985838799175e-01 0.0000000000000000e+00  1.7350748502459694e+00 7.0026050803861747e-02 0.0000000000000000e+00  1.7276280963516835e+00 5.9817505646583044e-02 0.0000000000000000e+00  9.9006182515840202e-01 -3.2490797177020186e-01 0.0000000000000000e+00  1.5009340758224070e-02 -1.0164507476796101e-02 0.0000000000000000e+00  5.8289894014079557e-01 2.2201303745364775e-01 0.0000000000000000e+00  7.2545420738869471e-01 -4.4138015077675824e-01 0.0000000000000000e+00  1.7015787909406227e-01 1.6061713998456645e-01 0.0000000000000000e+00  1.6334739090852497e+00 -2.1509363816917820e-01 0.0000000000000000e+00  2.5321060569742820e-01 2.7376327541795009e-01 0.0000000000000000e+00  1.5227474046487384e+00 -2.5419677063386903e-01 0.0000000000000000e+00  1.4009379143173095e+00 -2.6418601824281857e-01 0.0000000000000000e+00  1.5375623818228257e+00 -5.1302708669499486e-01 0.0000000000000000e+00  1.4688560961270516e+00 -3.8471760568001345e-01 0.0000000000000000e+00  1.6597368066396823e+00 -4.8511722908711435e-01 0.0000000000000000e+00  1.6840259185034099e+00 -1.7073251523466582e-01 0.0000000000000000e+00  1.4160506490996065e+00 -4.2900732963052557e-01 0.0000000000000000e+00  1.6676241104600564e+00 -2.1327574890166695e-01 0.0000000000000000e+00  1.4425902440874987e+00 -5.0376833875282201e-01 0.0000000000000000e+00  1.6362998435390532e+00 -5.4661085055640279e-01 0.0000000000000000e+00  1.6034454904234472e+00 -4.6221856920253429e-01 0.0000000000000000e+00  2.0259677979440383e-01 3.2080432671912412e-01 0.0000000000000000e+00  2.4914893351701051e-01 3.6565804408900238e-01 0.0000000000000000e+00  2.1220669431001349e-01 3.5955000941915072e-01 0.0000000000000000e+00  1.0799898386216438e+00 1.7704999536997795e-01 0.0000000000000000e+00  1.0968953847799103e+00 1.7018472771889204e-01 0.0000000000000000e+00  1.0932776940719136e+00 1.7228113395483899e-01 0.0000000000000000e+00  1.3417707828775320e+00 -1.2393027837793658e-01 0.0000000000000000e+00  1.6254820001971337e+00 7.0285412810603479e-02 0.0000000000000000e+00  5.1555951968020014e-02 -2.4943616641815141e-03 0.0000000000000000e+00  1.7497435999040400e+00 2.6570344799673549e-02 0.0000000000000000e+00  1.5907482046438465e-01 -7.9305629740487604e-02 0.0000000000000000e+00  1.3164339918852663e+00 -9.2291424320851703e-02 0.0000000000000000e+00  1.8074937468643024e+00 5.6340694425169535e-02 0.0000000000000000e+00  1.6525799532412477e+00 2.7337703907436593e-02 0.0000000000000000e+00  4.4361080359531657e-01 1.8842901564310879e-01 0.0000000000000000e+00  1.9220059841600915e-02 -2.3552178648534459e-02 0.0000000000000000e+00  3.9381190847003872e-01 1.1054698367175796e-01 0.0000000000000000e+00  6.0394877334126296e-02 -2.8095851255898446e-02 0.0000000000000000e+00  1.4837352588919652e+00 7.2630698108454905e-02 0.0000000000000000e+00  1.0780865317619466e+00 -2.7658626796650460e-01 0.0000000000000000e+00  1.2288329134767076e-01 2.4307910693330947e-02 0.0000000000000000e+00  8.8103740883248416e-01 2.6664945325196865e-01 0.0000000000000000e+00  1.5206838162276437e+00 1.0096410734809878e-01 0.0000000000000000e+00  9.3437332838193443e-01 3.3313114644508318e-01 0.0000000000000000e+00  5.5230377352433591e-01 -3.0212167937638246e-01 0.0000000000000000e+00  1.4343329228412731e+00 1.3555554432917291e-01 0.0000000000000000e+00  1.2344084229552992e+00 2.2026649221993294e-01 0.0000000000000000e+00  6.7713142525115655e-01 3.1119770757378601e-01 0.0000000000000000e+00  2.3074619689903760e-02 -3.1119718544907873e-02 0.0000000000000000e+00  1.3988311975666015e+00 1.7091132978796580e-02 0.0000000000000000e+00  1.5521902063026474e+00 -1.2124187749614811e-01 0.0000000000000000e+00  1.1546073984816875e-01 8.1202881599240061e-03 0.0000000000000000e+00  5.8150190290968518e-01 -3.6891414807835826e-01 0.0000000000000000e+00  8.2305878875354777e-01 -4.0297340909201079e-01 0.0000000000000000e+00  1.6499779272685036e+00 -2.7292021467439670e-02 0.0000000000000000e+00  2.1431552614510405e-01 8.3524962523182492e-02 0.0000000000000000e+00  1.5932517159419529e-01 -1.5513353265957019e-01 0.0000000000000000e+00  1.7507667002405578e+00 8.5390626307098011e-02 0.0000000000000000e+00  1.1367896006361449e+00 2.3974877560768126e-01 0.0000000000000000e+00  5.5505090279551750e-02 -7.1041087311105935e-02 0.0000000000000000e+00  1.8303687852426379e-01 -8.5057782458766648e-02 0.0000000000000000e+00  1.2134696664866709e+00 2.3290120804646483e-01 0.0000000000000000e+00  1.2008733859791463e+00 2.0642279273721992e-01 0.0000000000000000e+00  1.3148627716186692e+00 1.9406637551376460e-01 0.0000000000000000e+00  8.5258858781241120e-01 -4.2253471320677427e-01 0.0000000000000000e+00  1.6177404719394117e+00 7.7208254940142121e-02 0.0000000000000000e+00  7.4737817752987923e-01 -4.2994375031485299e-01 0.0000000000000000e+00  3.3463726100885438e-01 1.1888629117726500e-01 0.0000000000000000e+00  3.4772979955730776e-01 -2.3556791640867264e-01 0.0000000000000000e+00  1.0989633343459466e+00 1.9158714832671508e-01 0.0000000000000000e+00  1.0481884448717487e+00 -3.2376142564670396e-01 0.0000000000000000e+00  6.7478985977404826e-01 2.5900334291120730e-01 0.0000000000000000e+00  1.6866478588028750e+00 -1.2103821063690348e-01 0.0000000000000000e+00  1.9446993966775211e-01 2