<?xml version="1.0"?>
<VTKFile type="UnstructuredGrid"  version="0.1"  >
<UnstructuredGrid>
<Piece  NumberOfPoints="2868" NumberOfCells="5400">
<Points>
<DataArray  type="Float64"  NumberOfComponents="3"  format="ascii">0.534923 0.326073 0  0.510642 0.314196 0  0.466125 0.293082 0  0.436448 0.281205 0  0.409468 0.275927 0  0.368998 0.270648 0  0.35281 0.275927 0  0.381139 0.302319 0  0.405421 0.326073 0  0.410817 0.33531 0  0.408119 0.349826 0  0.400025 0.357744 0  0.375743 0.368301 0  0.329878 0.392055 0  0.297502 0.432963 0  0.282663 0.476511 0  0.285361 0.524018 0  0.298851 0.572845 0  0.317737 0.6045160000000001 0  0.337972 0.6361869999999999 0  0.360904 0.674457 0  0.368998 0.69953 0  0.359555 0.7219640000000001 0  0.360904 0.757594 0  0.370347 0.766831 0  0.381139 0.762872 0  0.390582 0.741758 0  0.404072 0.720644 0  0.424307 0.707448 0  0.447239 0.702169 0  0.480964 0.704808 0  0.479615 0.6889729999999999 0  0.468823 0.675776 0  0.447239 0.6691780000000001 0  0.428354 0.6691780000000001 0  0.410817 0.6639 0  0.404072 0.653343 0  0.395978 0.628269 0  0.387884 0.59132 0  0.389233 0.576804 0  0.397327 0.557009 0  0.410817 0.547772 0  0.424307 0.546452 0  0.437797 0.55305 0  0.44589 0.5662469999999999 0  0.441843 0.582082 0  0.439145 0.5979179999999999 0  0.449937 0.609795 0  0.468823 0.603196 0  0.479615 0.59 0  0.489058 0.570205 0  0.494454 0.546452 0  0.505246 0.522699 0  0.522783 0.509502 0  0.55246 0.494986 0  0.586185 0.484429 0  0.615863 0.48047 0  0.64554 0.473872 0  0.6671240000000001 0.461995 0  0.683312 0.451438 0  0.696802 0.435603 0  0.703547 0.417128 0  0.7116400000000001 0.393374 0  0.7183850000000001 0.37226 0  0.7251300000000001 0.364342 0  0.739969 0.353785 0  0.7453650000000001 0.344548 0  0.7453650000000001 0.327393 0  0.737271 0.318155 0  0.7183850000000001 0.316835 0  0.7008490000000001 0.319475 0  0.677916 0.318155 0  0.650936 0.316835 0  0.610467 0.318155 0  0.57944 0.324753 0  0.559205 0.328712 0  0.5389699999999999 0.326073 0  1 1 0  1 0 0  0 0 0  0 1 0  0.532238 0.32476 0  0.528748 0.323052 0  0.52421 0.320833 0  0.518311 0.317947 0  0.503447 0.310783 0  0.494093 0.306347 0  0.481933 0.30058 0  0.452151 0.28749 0  0.392327 0.273691 0  0.379141 0.271971 0  0.360474 0.283066 0  0.369797 0.291752 0  0.391424 0.31238 0  0.399335 0.32012 0  0.40958 0.341964 0  0.393939 0.36039 0  0.386028 0.36383 0  0.364248 0.374254 0  0.349304 0.381994 0  0.315801 0.409841 0  0.292986 0.551616 0  0.350934 0.657818 0  0.360127 0.737055 0  0.360566 0.748664 0  0.385245 0.753692 0  0.396447 0.732578 0  0.466301 0.703661 0  0.459439 0.672908 0  0.418442 0.666195 0  0.400553 0.642441 0  0.39255 0.612619 0  0.389913 0.60058 0  0.392752 0.568197 0  0.444131 0.573132 0  0.458149 0.606926 0  0.5005540000000001 0.533026 0  0.571522 0.489019 0  0.632637 0.476741 0  0.689177 0.444553 0  0.708121 0.403702 0  0.715453 0.38144 0  0.732406 0.359166 0  0.7453650000000001 0.337089 0  0.72906 0.317581 0  0.629879 0.317522 0  0.59293 0.321884 0  0.568003 0.326991 0  0.55202 0.327775 0  0.546493 0.327054 0  0.542241 0.326499 0  1 0.9 0  1 0.8 0  1 0.7 0  1 0.6 0  1 0.5 0  1 0.4 0  1 0.3 0  1 0.2 0  1 0.1 0  0.9 0 0  0.8 0 0  0.7 0 0  0.6 0 0  0.5 0 0  0.4 0 0  0.3 0 0  0.2 0 0  0.1 0 0  0.1 1 0  0.2 1 0  0.3 1 0  0.4 1 0  0.5 1 0  0.6 1 0  0.7 1 0  0.8 1 0  0.9 1 0  0 0.1 0  0 0.2 0  0 0.3 0  0 0.4 0  0 0.5 0  0 0.6 0  0 0.7 0  0 0.8 0  0 0.9 0  0.535686 0.5031910000000001 0  0.753987 0.733359 0  0.167145 0.741436 0  0.173378 0.257204 0  0.733497 0.159862 0  0.554096 0.15788 0  0.849187 0.479053 0  0.488793 0.838452 0  0.138507 0.5592 0  0.30686 0.154944 0  0.348904 0.890523 0  0.058006 0.065099 0  0.06984899999999999 0.937917 0  0.93633 0.939704 0  0.934625 0.053613 0  0.343397 0.333452 0  0.473272 0.639943 0  0.433266 0.638072 0  0.415174 0.58269 0  0.533435 0.545042 0  0.390848 0.340652 0  0.53655 0.320242 0  0.127966 0.393775 0  0.83861 0.850455 0  0.635242 0.8551299999999999 0  0.852158 0.633441 0  0.653427 0.626848 0  0.861226 0.24292 0  0.166128 0.12976 0  0.216875 0.8698709999999999 0  0.458305 0.11179 0  0.84446 0.101633 0  0.202024 0.642528 0  0.644825 0.115855 0  0.671342 0.218358 0  0.251354 0.286186 0  0.262388 0.75153 0  0.063044 0.751571 0  0.068189 0.242962 0  0.435781 0.9053949999999999 0  0.934144 0.451133 0  0.568393 0.237622 0  0.814984 0.395506 0  0.752951 0.517227 0  0.456254 0.780699 0  0.073352 0.531116 0  0.337731 0.206071 0  0.363213 0.960371 0  0.330742 0.363592 0  0.516613 0.55705 0  0.369057 0.332992 0  0.500926 0.617309 0  0.498004 0.665534 0  0.412142 0.61178 0  0.454233 0.6366039999999999 0  0.422782 0.567496 0  0.541193 0.5214800000000001 0  0.439761 0.65557 0  0.5163 0.533672 0  0.414775 0.64562 0  0.40073 0.576135 0  0.430362 0.5880339999999999 0  0.385432 0.351492 0  0.400298 0.335397 0  0.398325 0.348194 0  0.528702 0.314885 0  0.540814 0.322334 0  0.534477 0.322953 0  0.619095 0.743583 0  0.885162 0.737972 0  0.08076 0.668849 0  0.90734 0.36634 0  0.09468699999999999 0.868937 0  0.759838 0.912152 0  0.901518 0.540898 0  0.747285 0.607479 0  0.229182 0.071641 0  0.06915399999999999 0.450091 0  0.244775 0.203309 0  0.076534 0.331755 0  0.897847 0.167826 0  0.578909 0.911415 0  0.07713299999999999 0.146341 0  0.477215 0.203448 0  0.922631 0.869341 0  0.517415 0.074785 0  0.297026 0.827793 0  0.7832710000000001 0.246505 0  0.74519 0.061079 0  0.36033 0.069068 0  0.210313 0.475228 0  0.859426 0.928758 0  0.5745479999999999 0.609182 0  0.243069 0.383398 0  0.283099 0.934598 0  0.417416 0.843141 0  0.643942 0.553164 0  0.112687 0.079336 0  0.281357 0.658386 0  0.765043 0.436177 0  0.611361 0.198486 0  0.234496 0.58911 0  0.206479 0.702638 0  0.679608 0.155818 0  0.62682 0.259978 0  0.690538 0.264164 0  0.448938 0.956308 0  0.808154 0.328403 0  0.379583 0.91913 0  0.308083 0.297769 0  0.312358 0.730249 0  0.563101 0.278576 0  0.435597 0.746198 0  0.385475 0.225229 0  0.572248 0.518034 0  0.357864 0.35422 0  0.497647 0.641694 0  0.458101 0.655768 0  0.360474 0.310727 0  0.467038 0.620139 0  0.47798 0.659909 0  0.41102 0.628072 0  0.48324 0.609015 0  0.427544 0.617941 0  0.388633 0.328253 0  0.405336 0.599404 0  0.408351 0.565178 0  0.42395 0.600985 0  0.431562 0.576523 0  0.424905 0.6551979999999999 0  0.398064 0.58782 0  0.427739 0.557934 0  0.5192909999999999 0.303443 0  0.53142 0.320293 0  0.5449000000000001 0.323642 0  0.537166 0.323513 0  0.153974 0.920841 0  0.9181859999999999 0.67343 0  0.759946 0.820588 0  0.5375259999999999 0.783091 0  0.816532 0.545843 0  0.813991 0.178083 0  0.836774 0.702023 0  0.149815 0.318856 0  0.662287 0.923338 0  0.680146 0.791192 0  0.708961 0.663172 0  0.9372779999999999 0.287318 0  0.574622 0.6881660000000001 0  0.5894740000000001 0.076262 0  0.502822 0.926683 0  0.222269 0.811068 0  0.380457 0.164786 0  0.15321 0.684154 0  0.458063 0.051413 0  0.161702 0.056026 0  0.199351 0.198818 0  0.298946 0.09553200000000001 0  0.902465 0.795949 0  0.121139 0.791477 0  0.906269 0.112287 0  0.056109 0.822332 0  0.512172 0.13237 0  0.940964 0.741805 0  0.888887 0.408777 0  0.354543 0.825964 0  0.808736 0.068638 0  0.068507 0.394071 0  0.719105 0.563843 0  0.247287 0.149664 0  0.293062 0.237128 0  0.240524 0.434997 0  0.141255 0.623289 0  0.945202 0.160621 0  0.502914 0.247629 0  0.144669 0.480811 0  0.665025 0.060817 0  0.728047 0.224344 0  0.861995 0.313312 0  0.200068 0.534235 0  0.253262 0.965623 0  0.893804 0.49307 0  0.604391 0.572456 0  0.947088 0.345347 0  0.439372 0.227307 0  0.629847 0.159823 0  0.273405 0.880181 0  0.302744 0.776823 0  0.781502 0.295365 0  0.275342 0.349602 0  0.7283849999999999 0.472798 0  0.229136 0.246478 0  0.807794 0.480346 0  0.709476 0.112786 0  0.275506 0.694991 0  0.771674 0.394419 0  0.449715 0.861802 0  0.419159 0.799696 0  0.674851 0.503139 0  0.280443 0.61016 0  0.572443 0.192538 0  0.393113 0.87525 0  0.405555 0.948428 0  0.330942 0.934103 0  0.540509 0.597101 0  0.312763 0.6689310000000001 0  0.254368 0.540179 0  0.595265 0.25915 0  0.606679 0.234099 0  0.657131 0.279138 0  0.722458 0.279478 0  0.333 0.308056 0  0.351529 0.246142 0  0.455714 0.7257940000000001 0  0.585239 0.295143 0  0.340062 0.72492 0  0.545593 0.293773 0  0.555449 0.545426 0  0.414311 0.737314 0  0.590854 0.502323 0  0.350507 0.368444 0  0.484423 0.625665 0  0.483899 0.674542 0  0.378137 0.317274 0  0.446416 0.646404 0  0.373532 0.347654 0  0.446876 0.619769 0  0.466106 0.666068 0  0.437545 0.609254 0  0.434988 0.565726 0  0.41462 0.656829 0  0.418803 0.556961 0  0.398425 0.327446 0  0.517803 0.310421 0  0.549516 0.322918 0  0.57701 0.842889 0  0.8291269999999999 0.773906 0  0.643235 0.684732 0  0.134281 0.207734 0  0.865997 0.055966 0  0.680959 0.723345 0  0.165229 0.8415550000000001 0  0.54558 0.959672 0  0.783726 0.656439 0  0.913315 0.595533 0  0.699439 0.860667 0  0.785839 0.125076 0  0.551673 0.037713 0  0.9200970000000001 0.223214 0  0.206406 0.299726 0  0.087064 0.596401 0  0.935644 0.394252 0  0.964557 0.252582 0  0.230124 0.928346 0  0.120579 0.271764 0  0.8572149999999999 0.524082 0  0.7670979999999999 0.5551469999999999 0  0.936094 0.507131 0  0.804064 0.59585 0  0.700565 0.608273 0  0.429773 0.174231 0  0.117746 0.727333 0  0.5389620000000001 0.730231 0  0.862761 0.359173 0  0.821444 0.284046 0  0.193552 0.35818 0  0.234923 0.505555 0  0.193209 0.421217 0  0.220144 0.755896 0  0.594015 0.131642 0  0.283813 0.195855 0  0.517519 0.213961 0  0.553509 0.639116 0  0.280391 0.378018 0  0.852183 0.436817 0  0.746983 0.197173 0  0.821806 0.221318 0  0.449853 0.828453 0  0.883758 0.453926 0  0.183484 0.589542 0  0.348384 0.129314 0  0.255254 0.838525 0  0.504849 0.798516 0  0.320344 0.863432 0  0.611669 0.525425 0  0.265864 0.804962 0  0.72056 0.521442 0  0.613372 0.6101220000000001 0  0.481262 0.881068 0  0.655778 0.191988 0  0.701921 0.196918 0  0.5658260000000001 0.5731810000000001 0  0.46914 0.240927 0  0.343219 0.173284 0  0.888786 0.278502 0  0.244113 0.6750930000000001 0  0.739546 0.417914 0  0.784023 0.355942 0  0.326805 0.265549 0  0.248616 0.6
[...]
<PointData  Vectors="f_21"> 
<DataArray  type="Float64"  Name="f_21"  NumberOfComponents="3" format="ascii">1.4263104674729086e+00 3.5765605035191445e-01 0.0000000000000000e+00  1.3700715432913104e+00 3.9358127843089130e-01 0.0000000000000000e+00  1.1980219403922590e+00 4.4932990913149207e-01 0.0000000000000000e+00  1.0471600291184369e+00 4.6714871472461633e-01 0.0000000000000000e+00  9.0543400878819746e-01 4.6250890314723486e-01 0.0000000000000000e+00  6.6810576672755040e-01 4.4162528992516403e-01 0.0000000000000000e+00  5.2917081132287680e-01 4.0451989159858609e-01 0.0000000000000000e+00  3.6532174756509589e-01 5.1664546047915572e-01 0.0000000000000000e+00  2.7361399724091789e-01 6.0362664805942634e-01 0.0000000000000000e+00  2.3861124409216170e-01 6.2404401436342383e-01 0.0000000000000000e+00  1.8328846840874563e-01 6.1372386380019039e-01 0.0000000000000000e+00  1.5283943506009928e-01 5.8250432692378717e-01 0.0000000000000000e+00  1.1357122003927828e-01 4.8508902849521773e-01 0.0000000000000000e+00  4.9404004058112405e-02 2.8631184158754963e-01 0.0000000000000000e+00  -1.5599451818256303e-02 1.3101626444587453e-01 0.0000000000000000e+00  -4.9326942937811771e-02 1.0274421862348018e-02 0.0000000000000000e+00  -4.8821464607844853e-02 -1.0671644407322148e-01 0.0000000000000000e+00  -1.6115794310540464e-02 -2.3386512515848040e-01 0.0000000000000000e+00  3.1301649466419425e-02 -3.4250088528408473e-01 0.0000000000000000e+00  1.0206512808706618e-01 -4.5100827852893011e-01 0.0000000000000000e+00  2.1962954400474083e-01 -5.7353511362597276e-01 0.0000000000000000e+00  3.1177157510711262e-01 -6.1988855033856383e-01 0.0000000000000000e+00  4.0037779237446924e-01 -6.0663803939871963e-01 0.0000000000000000e+00  6.7055122134411915e-01 -6.6300369095655809e-01 0.0000000000000000e+00  8.9547767427927227e-01 -7.3434671648164729e-01 0.0000000000000000e+00  1.0830673958097610e+00 -7.5413929267123259e-01 0.0000000000000000e+00  1.3734040549960524e+00 -7.4963858421356033e-01 0.0000000000000000e+00  1.5227496196439987e+00 -6.8861334298587595e-01 0.0000000000000000e+00  1.5908904087543598e+00 -6.1536500720236365e-01 0.0000000000000000e+00  1.6262306526098931e+00 -5.5806946337710273e-01 0.0000000000000000e+00  1.7300619975896019e+00 -5.5051327488948021e-01 0.0000000000000000e+00  1.8985543435307473e+00 -5.8762302590332638e-01 0.0000000000000000e+00  1.9851296847001774e+00 -6.3629115745104425e-01 0.0000000000000000e+00  2.0174036258073382e+00 -7.2831509719408061e-01 0.0000000000000000e+00  2.0131926926962658e+00 -8.1969744446015991e-01 0.0000000000000000e+00  2.0373825664404528e+00 -9.0888282834902867e-01 0.0000000000000000e+00  2.0895632397301518e+00 -9.4405015406982284e-01 0.0000000000000000e+00  2.2169715549272442e+00 -9.9352522646145902e-01 0.0000000000000000e+00  2.4277708230934034e+00 -1.0520186600113457e+00 0.0000000000000000e+00  2.5155564694528816e+00 -1.0460161025582122e+00 0.0000000000000000e+00  2.6362910742226342e+00 -9.9862952114346015e-01 0.0000000000000000e+00  2.6926778800014151e+00 -9.1746460020652265e-01 0.0000000000000000e+00  2.7008739654168150e+00 -8.3617183030120790e-01 0.0000000000000000e+00  2.6611951324220420e+00 -7.5472977951824693e-01 0.0000000000000000e+00  2.5808889517432134e+00 -7.0544255755178464e-01 0.0000000000000000e+00  2.4827435009631760e+00 -7.3136947188526980e-01 0.0000000000000000e+00  2.3820127203854486e+00 -7.5464183137530905e-01 0.0000000000000000e+00  2.3031042653421818e+00 -7.0675215971335048e-01 0.0000000000000000e+00  2.3158432700899509e+00 -6.2019472501430239e-01 0.0000000000000000e+00  2.3572229825504389e+00 -5.6993835307151186e-01 0.0000000000000000e+00  2.4177883694758537e+00 -5.2618996567554388e-01 0.0000000000000000e+00  2.4877315379135654e+00 -5.0133354188849300e-01 0.0000000000000000e+00  2.5569462230424747e+00 -4.6446568745421329e-01 0.0000000000000000e+00  2.5946446066818090e+00 -4.0870901448154112e-01 0.0000000000000000e+00  2.6325611912501707e+00 -3.1433620599300433e-01 0.0000000000000000e+00  2.6543082869585608e+00 -2.0823039980784949e-01 0.0000000000000000e+00  2.6514702915396207e+00 -1.1476279533085421e-01 0.0000000000000000e+00  2.6430203288853056e+00 -1.8324455874827342e-02 0.0000000000000000e+00  2.6379272986356659e+00 4.9789541492002508e-02 0.0000000000000000e+00  2.6250990298617305e+00 1.0695833951865968e-01 0.0000000000000000e+00  2.6020014174766559e+00 1.6249365000193483e-01 0.0000000000000000e+00  2.5643415782000729e+00 2.0437066949886631e-01 0.0000000000000000e+00  2.5076329490620188e+00 2.4116038233715473e-01 0.0000000000000000e+00  2.4490154481541810e+00 2.5602267023610126e-01 0.0000000000000000e+00  2.4282029431180998e+00 2.5173929744361567e-01 0.0000000000000000e+00  2.3830108098929346e+00 2.5453940342432485e-01 0.0000000000000000e+00  2.3216009919836051e+00 2.6277439457319496e-01 0.0000000000000000e+00  2.1678236215665345e+00 2.7545732115425836e-01 0.0000000000000000e+00  2.0385156742956032e+00 2.8538222615852127e-01 0.0000000000000000e+00  1.9098346790437184e+00 2.7566349086406139e-01 0.0000000000000000e+00  1.8408695877333892e+00 2.7186236477223347e-01 0.0000000000000000e+00  1.7692232931225087e+00 2.8439455842279909e-01 0.0000000000000000e+00  1.6784978230597187e+00 3.0313173201384469e-01 0.0000000000000000e+00  1.5501249251861093e+00 3.2421707886665463e-01 0.0000000000000000e+00  1.4753033468171408e+00 3.2883958255837881e-01 0.0000000000000000e+00  1.4507728477954100e+00 3.3545215133511219e-01 0.0000000000000000e+00  1.4290285931291564e+00 3.5315319818408109e-01 0.0000000000000000e+00  1.8107996733959422e+00 2.8495974224633358e-01 0.0000000000000000e+00  1.6010446056116989e+00 -1.2848393844518163e-01 0.0000000000000000e+00  0.0000000000000000e+00 0.0000000000000000e+00 0.0000000000000000e+00  0.0000000000000000e+00 0.0000000000000000e+00 0.0000000000000000e+00  1.4225579955998950e+00 3.6158911836152835e-01 0.0000000000000000e+00  1.4161038728341622e+00 3.6677815750541226e-01 0.0000000000000000e+00  1.4062254066516449e+00 3.7352770696317705e-01 0.0000000000000000e+00  1.3917143544691231e+00 3.8236665528941621e-01 0.0000000000000000e+00  1.3477781742737509e+00 4.0360935538882736e-01 0.0000000000000000e+00  1.3156670444957443e+00 4.1649016586098825e-01 0.0000000000000000e+00  1.2692868219040065e+00 4.3169576393341597e-01 0.0000000000000000e+00  1.1320121443581947e+00 4.6031835471912086e-01 0.0000000000000000e+00  8.1709751767816952e-01 4.5352538080765314e-01 0.0000000000000000e+00  7.4343689855315953e-01 4.4737495332750421e-01 0.0000000000000000e+00  4.6227084076913716e-01 4.4604290884142833e-01 0.0000000000000000e+00  4.1208225328816461e-01 4.7856069741868412e-01 0.0000000000000000e+00  3.2548722145982911e-01 5.5212996521387314e-01 0.0000000000000000e+00  2.9611213412936604e-01 5.8091824561919603e-01 0.0000000000000000e+00  2.1332589017163497e-01 6.1932936094964153e-01 0.0000000000000000e+00  1.4266497226495506e-01 5.5866135009938522e-01 0.0000000000000000e+00  1.2965802211959077e-01 5.2715132871852721e-01 0.0000000000000000e+00  9.3603654239257927e-02 4.3672738060900229e-01 0.0000000000000000e+00  7.1266782493373870e-02 3.7273486397582356e-01 0.0000000000000000e+00  1.6476734997680410e-02 2.1857328481493718e-01 0.0000000000000000e+00  -3.3689804156963078e-02 -1.7664535862497738e-01 0.0000000000000000e+00  1.6388724304964228e-01 -5.2120397420485853e-01 0.0000000000000000e+00  4.8294448944585999e-01 -6.3481608807407852e-01 0.0000000000000000e+00  5.6969238600762162e-01 -6.5631003603903371e-01 0.0000000000000000e+00  1.2486782498192304e+00 -7.6684336838442613e-01 0.0000000000000000e+00  1.4474712566879333e+00 -7.2234516743127808e-01 0.0000000000000000e+00  1.6594026787784120e+00 -5.3545968571066360e-01 0.0000000000000000e+00  2.0013300032839618e+00 -6.7429310982608870e-01 0.0000000000000000e+00  2.0264866555910315e+00 -8.6987445964682186e-01 0.0000000000000000e+00  2.1437039220750012e+00 -9.6430946065388123e-01 0.0000000000000000e+00  2.3021859937001543e+00 -1.0182028437398198e+00 0.0000000000000000e+00  2.3722586407117907e+00 -1.0377610551760141e+00 0.0000000000000000e+00  2.5680295877304147e+00 -1.0256705687614265e+00 0.0000000000000000e+00  2.5384714783825229e+00 -7.1636117642991881e-01 0.0000000000000000e+00  2.3081848234789515e+00 -6.6920092085263039e-01 0.0000000000000000e+00  2.5266626586576080e+00 -4.8005542550536551e-01 0.0000000000000000e+00  2.6452597363233719e+00 -2.5433377093033227e-01 0.0000000000000000e+00  2.6488720367071239e+00 -6.0929475120422905e-02 0.0000000000000000e+00  2.6164011270315277e+00 1.3224631880257157e-01 0.0000000000000000e+00  2.5338308341379054e+00 2.2735072950640725e-01 0.0000000000000000e+00  2.4744285068572380e+00 2.5261888525798920e-01 0.0000000000000000e+00  2.4092725600904572e+00 2.5067061639239513e-01 0.0000000000000000e+00  2.2621168900014665e+00 2.7958488700182843e-01 0.0000000000000000e+00  1.9735567351952283e+00 2.7805799097372208e-01 0.0000000000000000e+00  1.6099372208414939e+00 3.1408630402204518e-01 0.0000000000000000e+00  1.5019196890653712e+00 3.2697739885139632e-01 0.0000000000000000e+00  1.4589547738678441e+00 3.3163951191586677e-01 0.0000000000000000e+00  1.4441048925352356e+00 3.4076829631592237e-01 0.0000000000000000e+00  1.4377782280656204e+00 3.4575914796425022e-01 0.0000000000000000e+00  1.4328049096581810e+00 3.4982614419845715e-01 0.0000000000000000e+00  2.0046174808491171e+00 3.2814048207422014e-01 0.0000000000000000e+00  2.2241654415162917e+00 3.6290961182015308e-01 0.0000000000000000e+00  2.4489790208464828e+00 3.4686615603560983e-01 0.0000000000000000e+00  2.6371251542661072e+00 2.6152531036388360e-01 0.0000000000000000e+00  2.7137097228454610e+00 9.6642912490252766e-02 0.0000000000000000e+00  2.6076962702695634e+00 -7.8730195279340651e-02 0.0000000000000000e+00  2.3560870680821289e+00 -1.8358777359456069e-01 0.0000000000000000e+00  2.0834275176864638e+00 -1.9520134808012982e-01 0.0000000000000000e+00  1.8308376854888253e+00 -1.6449894352891781e-01 0.0000000000000000e+00  1.5070108643397488e+00 9.5496585782450835e-02 0.0000000000000000e+00  1.4040341733187871e+00 2.9102209436408699e-01 0.0000000000000000e+00  1.2869832265271430e+00 4.4963257070078305e-01 0.0000000000000000e+00  1.1564854605503361e+00 5.6882338203256078e-01 0.0000000000000000e+00  1.0317781807894233e+00 6.4366013750274576e-01 0.0000000000000000e+00  9.2527663396515425e-01 6.2737993395441505e-01 0.0000000000000000e+00  7.8735668676613757e-01 4.9019773911893327e-01 0.0000000000000000e+00  5.7923307971858562e-01 3.1741796228304725e-01 0.0000000000000000e+00  3.1977862633943599e-01 1.7443609914121014e-01 0.0000000000000000e+00  3.6117646959427929e-01 -1.9952631251063438e-01 0.0000000000000000e+00  6.5370922925754416e-01 -4.0522995707365256e-01 0.0000000000000000e+00  8.5645540859797098e-01 -6.4235650474740169e-01 0.0000000000000000e+00  9.4372575744367437e-01 -7.5965322697636040e-01 0.0000000000000000e+00  1.0172750411515459e+00 -6.5095635268760943e-01 0.0000000000000000e+00  1.1705061147699936e+00 -4.2812282770066318e-01 0.0000000000000000e+00  1.3730244348125227e+00 -2.2054706857375528e-01 0.0000000000000000e+00  1.5612816853501277e+00 -5.3044851244979797e-02 0.0000000000000000e+00  1.7052424715396408e+00 1.0341207966377076e-01 0.0000000000000000e+00  0.0000000000000000e+00 0.0000000000000000e+00 0.0000000000000000e+00  0.0000000000000000e+00 0.0000000000000000e+00 0.0000000000000000e+00  0.0000000000000000e+00 0.0000000000000000e+00 0.0000000000000000e+00  0.0000000000000000e+00 0.0000000000000000e+00 0.0000000000000000e+00  0.0000000000000000e+00 0.0000000000000000e+00 0.0000000000000000e+00  0.0000000000000000e+00 0.0000000000000000e+00 0.0000000000000000e+00  0.0000000000000000e+00 0.0000000000000000e+00 0.0000000000000000e+00  0.0000000000000000e+00 0.0000000000000000e+00 0.0000000000000000e+00  0.0000000000000000e+00 0.0000000000000000e+00 0.0000000000000000e+00  2.6115343204892492e+00 -3.6751716082512542e-01 0.0000000000000000e+00  2.1051788934215310e+00 4.5546793892333667e-02 0.0000000000000000e+00  2.1416958304707789e-01 -8.9648967524874126e-02 0.0000000000000000e+00  2.2630008901797094e-01 5.5101545845819333e-02 0.0000000000000000e+00  1.6045524920657779e+00 3.3178803344951674e-01 0.0000000000000000e+00  1.2213715219112178e+00 5.0960806791489566e-01 0.0000000000000000e+00  2.6401229577778222e+00 1.3137191369858961e-01 0.0000000000000000e+00  1.2451116460964524e+00 -5.8011215739355959e-01 0.0000000000000000e+00  -2.6786385633299228e-02 -1.5968954552681571e-02 0.0000000000000000e+00  6.4663351629846910e-01 3.9480684739072641e-01 0.0000000000000000e+00  8.6289813987269359e-01 -6.7565978187247122e-01 0.0000000000000000e+00  1.3865813986941697e-01 5.9791509184883407e-02 0.0000000000000000e+00  1.8630248581702022e-01 -8.6642206510121736e-02 0.0000000000000000e+00  1.8578108048317623e+00 1.9126979512619890e-01 0.0000000000000000e+00  1.6582783217740718e+00 2.0622128781671609e-03 0.0000000000000000e+00  2.3775103950925541e-01 3.5916601145188382e-01 0.0000000000000000e+00  2.1589838476361756e+00 -6.0651611139423012e-01 0.0000000000000000e+00  2.1652706653990865e+00 -7.9279818257042478e-01 0.0000000000000000e+00  2.4782087725023034e+00 -8.9185100646609172e-01 0.0000000000000000e+00  2.4909695438247046e+00 -3.7529104168230898e-01 0.0000000000000000e+00  2.1815052437354090e-01 5.4726673948863391e-01 0.0000000000000000e+00  1.4174770935010002e+00 3.5749389541937049e-01 0.0000000000000000e+00  1.7452473509756272e-02 -3.0876132532001232e-02 0.0000000000000000e+00  1.9196372981741940e+00 8.5991147708781190e-02 0.0000000000000000e+00  1.5447096107123095e+00 -2.5025121969518022e-01 0.0000000000000000e+00  2.4737618265103891e+00 1.6080666000683713e-01 0.0000000000000000e+00  2.2898084048787539e+00 -5.0981129976127075e-02 0.0000000000000000e+00  2.0401064265135926e+00 8.2953127614970507e-02 0.0000000000000000e+00  3.4742881020759792e-01 1.5495092579769268e-01 0.0000000000000000e+00  5.1093223513105990e-01 -3.2432396924153722e-01 0.0000000000000000e+00  9.8407341380354352e-01 5.9137478371091379e-01 0.0000000000000000e+00  1.6582489181040008e+00 1.7028798518499574e-01 0.0000000000000000e+00  7.3167464204432611e-02 -8.9931258189868871e-02 0.0000000000000000e+00  1.3625660481514046e+00 4.6084820488962036e-01 0.0000000000000000e+00  1.5909006435038466e+00 3.7254645542543824e-01 0.0000000000000000e+00  3.0111263174084901e-01 1.3781902055501391e-01 0.0000000000000000e+00  4.0840035595538876e-01 -2.9003896880922669e-01 0.0000000000000000e+00  7.5555130315593175e-02 4.4787080961891466e-03 0.0000000000000000e+00  8.4114103140210256e-02 -7.0677612219396183e-03 0.0000000000000000e+00  1.0299261610209935e+00 -7.0736730829539629e-01 0.0000000000000000e+00  2.6560352861004075e+00 6.4876312740095088e-02 0.0000000000000000e+00  1.3589989347900577e+00 4.1821709958527659e-01 0.0000000000000000e+00  2.5188514661240293e+00 1.2518774203346800e-01 0.0000000000000000e+00  2.5881586939633223e+00 1.4350076267665496e-01 0.0000000000000000e+00  1.3132615437252748e+00 -5.9432441428875649e-01 0.0000000000000000e+00  -1.5463689867758855e-02 -3.5183622541013668e-03 0.0000000000000000e+00  6.8134783682483069e-01 4.1992457809591460e-01 0.0000000000000000e+00  8.9612573008239371e-01 -7.1937084975598131e-01 0.0000000000000000e+00  1.3486858293905390e-01 3.0013283171775751e-01 0.0000000000000000e+00  2.4569558470262702e+00 -4.3132670243136245e-01 0.0000000000000000e+00  2.4486416415856987e-01 4.6254363193166392e-01 0.0000000000000000e+00  2.2563354872468295e+00 -4.9065794768776660e-01 0.0000000000000000e+00  2.0387748516705697e+00 -4.9862511922545349e-01 0.0000000000000000e+00  2.3049265816410704e+00 -9.0682743382798425e-01 0.0000000000000000e+00  2.1732230482350587e+00 -6.9058468749084134e-01 0.0000000000000000e+00  2.5724640064773543e+00 -8.4597832385399774e-01 0.0000000000000000e+00  2.5576466195270049e+00 -3.4979748066428717e-01 0.0000000000000000e+00  2.0808093583860616e+00 -7.6253725036204423e-01 0.0000000000000000e+00  2.5245573685524105e+00 -4.3025107220241654e-01 0.0000000000000000e+00  2.1277710871863569e+00 -8.8920403152528082e-01 0.0000000000000000e+00  2.5191909355459390e+00 -9.7731367575749117e-01 0.0000000000000000e+00  2.4444842103971638e+00 -8.0306686996033871e-01 0.0000000000000000e+00  1.7713307588540300e-01 5.2509660087596455e-01 0.0000000000000000e+00  2.3826623795218668e-01 5.8399709805553934e-01 0.0000000000000000e+00  1.8957983206786311e-01 5.7602455405757913e-01 0.0000000000000000e+00  1.3963777487720959e+00 3.6902607622833350e-01 0.0000000000000000e+00  1.4256111861343777e+00 3.5252172603136167e-01 0.0000000000000000e+00  1.4204706468266761e+00 3.5889766789983973e-01 0.0000000000000000e+00  1.8453911306727724e+00 -1.9212091391248426e-01 0.0000000000000000e+00  2.2609044388807518e+00 1.8382365588225649e-01 0.0000000000000000e+00  4.2706634170268175e-02 1.4788491003952750e-02 0.0000000000000000e+00  2.4774811340081140e+00 2.4016994983269147e-02 0.0000000000000000e+00  2.0218637840374701e-01 -7.6349248491907939e-02 0.0000000000000000e+00  1.6537797467427395e+00 -6.2131539328238360e-02 0.0000000000000000e+00  2.6488644092197289e+00 1.4696706695464767e-01 0.0000000000000000e+00  2.4295332374483265e+00 1.0085355688175364e-01 0.0000000000000000e+00  5.4935852661258300e-01 3.1200380233776481e-01 0.0000000000000000e+00  -8.6579075161116164e-03 -2.2735328767431309e-02 0.0000000000000000e+00  4.4739124858126783e-01 2.1696619388507934e-01 0.0000000000000000e+00  4.5773522645481804e-02 -2.9350481528804921e-02 0.0000000000000000e+00  1.8869956221576505e+00 4.2631207694034619e-02 0.0000000000000000e+00  1.3071171285569103e+00 -4.2217944143387665e-01 0.0000000000000000e+00  1.4293028496374882e-01 3.6540125097219406e-02 0.0000000000000000e+00  1.0611989888285582e+00 5.1914134470868734e-01 0.0000000000000000e+00  1.9873602259757901e+00 1.9846672489749922e-01 0.0000000000000000e+00  1.0870143163571055e+00 5.9624752086055888e-01 0.0000000000000000e+00  6.9568404300706577e-01 -4.9454520407620928e-01 0.0000000000000000e+00  1.9024786097826825e+00 2.1570726009214167e-01 0.0000000000000000e+00  1.4412650262859332e+00 3.5772665674329590e-01 0.0000000000000000e+00  8.1324394052045157e-01 5.4682044924530826e-01 0.0000000000000000e+00  -5.5960158073413771e-02 -2.5820315711668491e-02 0.0000000000000000e+00  1.7790389930541977e+00 7.3609729749738270e-02 0.0000000000000000e+00  2.2951590926754055e+00 -2.4479337486802322e-01 0.0000000000000000e+00  6.1876662851196466e-02 5.4531557366814525e-02 0.0000000000000000e+00  7.3800352218147824e-01 -5.6040174880905591e-01 0.0000000000000000e+00  1.0410939485487241e+00 -7.0465727150614399e-01 0.0000000000000000e+00  2.4755673847642163e+00 -4.2379362481840245e-02 0.0000000000000000e+00  2.6614416957437903e-01 1.2268513193977310e-01 0.0000000000000000e+00  1.4658234231244260e-01 -2.6968093351423222e-01 0.0000000000000000e+00  2.5968139269117345e+00 1.7026860491471968e-01 0.0000000000000000e+00  1.4124339532721091e+00 4.3119896912824734e-01 0.0000000000000000e+00  -6.0706439692935930e-03 -1.1256728213851551e-01 0.0000000000000000e+00  1.9445555028515796e-01 -1.2879577728736463e-01 0.0000000000000000e+00  1.4934792571640350e+00 4.0095395151972058e-01 0.0000000000000000e+00  1.5484326515846667e+00 3.6824720932479260e-01 0.0000000000000000e+00  1.7289920777144538e+00 3.3008424676690751e-01 0.0000000000000000e+00  1.0118709997498485e+00 -7.1069967604287165e-01 0.0000000000000000e+00  2.2655468943772119e+00 1.2130551995044883e-01 0.0000000000000000e+00  9.1966644357944627e-01 -7.2029967085475766e-01 0.0000000000000000e+00  3.5010575096918400e-01 2.5080396638521102e-01 0.0000000000000000e+00  4.1307271500379139e-01 -4.1132622696620347e-01 0.0000000000000000e+00  1.4061593480946939e+00 3.7448695417666600e-01 0.0000000000000000e+00  1.4183150750230540e+00 -5.9828243687434046e-01 0.0000000000000000e+00  7.9835030543070051e-01 4.9765361840191175e-01 0.0000000000000000e+00  2.5627145155983304e+00 -2.5036289564217928e-01 0.0000000000000000e+00  1.67231748920754