<?xml version="1.0"?>
<VTKFile type="UnstructuredGrid"  version="0.1"  >
<UnstructuredGrid>
<Piece  NumberOfPoints="2868" NumberOfCells="5400">
<Points>
<DataArray  type="Float64"  NumberOfComponents="3"  format="ascii">0.534923 0.326073 0  0.510642 0.314196 0  0.466125 0.293082 0  0.436448 0.281205 0  0.409468 0.275927 0  0.368998 0.270648 0  0.35281 0.275927 0  0.381139 0.302319 0  0.405421 0.326073 0  0.410817 0.33531 0  0.408119 0.349826 0  0.400025 0.357744 0  0.375743 0.368301 0  0.329878 0.392055 0  0.297502 0.432963 0  0.282663 0.476511 0  0.285361 0.524018 0  0.298851 0.572845 0  0.317737 0.6045160000000001 0  0.337972 0.6361869999999999 0  0.360904 0.674457 0  0.368998 0.69953 0  0.359555 0.7219640000000001 0  0.360904 0.757594 0  0.370347 0.766831 0  0.381139 0.762872 0  0.390582 0.741758 0  0.404072 0.720644 0  0.424307 0.707448 0  0.447239 0.702169 0  0.480964 0.704808 0  0.479615 0.6889729999999999 0  0.468823 0.675776 0  0.447239 0.6691780000000001 0  0.428354 0.6691780000000001 0  0.410817 0.6639 0  0.404072 0.653343 0  0.395978 0.628269 0  0.387884 0.59132 0  0.389233 0.576804 0  0.397327 0.557009 0  0.410817 0.547772 0  0.424307 0.546452 0  0.437797 0.55305 0  0.44589 0.5662469999999999 0  0.441843 0.582082 0  0.439145 0.5979179999999999 0  0.449937 0.609795 0  0.468823 0.603196 0  0.479615 0.59 0  0.489058 0.570205 0  0.494454 0.546452 0  0.505246 0.522699 0  0.522783 0.509502 0  0.55246 0.494986 0  0.586185 0.484429 0  0.615863 0.48047 0  0.64554 0.473872 0  0.6671240000000001 0.461995 0  0.683312 0.451438 0  0.696802 0.435603 0  0.703547 0.417128 0  0.7116400000000001 0.393374 0  0.7183850000000001 0.37226 0  0.7251300000000001 0.364342 0  0.739969 0.353785 0  0.7453650000000001 0.344548 0  0.7453650000000001 0.327393 0  0.737271 0.318155 0  0.7183850000000001 0.316835 0  0.7008490000000001 0.319475 0  0.677916 0.318155 0  0.650936 0.316835 0  0.610467 0.318155 0  0.57944 0.324753 0  0.559205 0.328712 0  0.5389699999999999 0.326073 0  1 1 0  1 0 0  0 0 0  0 1 0  0.532238 0.32476 0  0.528748 0.323052 0  0.52421 0.320833 0  0.518311 0.317947 0  0.503447 0.310783 0  0.494093 0.306347 0  0.481933 0.30058 0  0.452151 0.28749 0  0.392327 0.273691 0  0.379141 0.271971 0  0.360474 0.283066 0  0.369797 0.291752 0  0.391424 0.31238 0  0.399335 0.32012 0  0.40958 0.341964 0  0.393939 0.36039 0  0.386028 0.36383 0  0.364248 0.374254 0  0.349304 0.381994 0  0.315801 0.409841 0  0.292986 0.551616 0  0.350934 0.657818 0  0.360127 0.737055 0  0.360566 0.748664 0  0.385245 0.753692 0  0.396447 0.732578 0  0.466301 0.703661 0  0.459439 0.672908 0  0.418442 0.666195 0  0.400553 0.642441 0  0.39255 0.612619 0  0.389913 0.60058 0  0.392752 0.568197 0  0.444131 0.573132 0  0.458149 0.606926 0  0.5005540000000001 0.533026 0  0.571522 0.489019 0  0.632637 0.476741 0  0.689177 0.444553 0  0.708121 0.403702 0  0.715453 0.38144 0  0.732406 0.359166 0  0.7453650000000001 0.337089 0  0.72906 0.317581 0  0.629879 0.317522 0  0.59293 0.321884 0  0.568003 0.326991 0  0.55202 0.327775 0  0.546493 0.327054 0  0.542241 0.326499 0  1 0.9 0  1 0.8 0  1 0.7 0  1 0.6 0  1 0.5 0  1 0.4 0  1 0.3 0  1 0.2 0  1 0.1 0  0.9 0 0  0.8 0 0  0.7 0 0  0.6 0 0  0.5 0 0  0.4 0 0  0.3 0 0  0.2 0 0  0.1 0 0  0.1 1 0  0.2 1 0  0.3 1 0  0.4 1 0  0.5 1 0  0.6 1 0  0.7 1 0  0.8 1 0  0.9 1 0  0 0.1 0  0 0.2 0  0 0.3 0  0 0.4 0  0 0.5 0  0 0.6 0  0 0.7 0  0 0.8 0  0 0.9 0  0.535686 0.5031910000000001 0  0.753987 0.733359 0  0.167145 0.741436 0  0.173378 0.257204 0  0.733497 0.159862 0  0.554096 0.15788 0  0.849187 0.479053 0  0.488793 0.838452 0  0.138507 0.5592 0  0.30686 0.154944 0  0.348904 0.890523 0  0.058006 0.065099 0  0.06984899999999999 0.937917 0  0.93633 0.939704 0  0.934625 0.053613 0  0.343397 0.333452 0  0.473272 0.639943 0  0.433266 0.638072 0  0.415174 0.58269 0  0.533435 0.545042 0  0.390848 0.340652 0  0.53655 0.320242 0  0.127966 0.393775 0  0.83861 0.850455 0  0.635242 0.8551299999999999 0  0.852158 0.633441 0  0.653427 0.626848 0  0.861226 0.24292 0  0.166128 0.12976 0  0.216875 0.8698709999999999 0  0.458305 0.11179 0  0.84446 0.101633 0  0.202024 0.642528 0  0.644825 0.115855 0  0.671342 0.218358 0  0.251354 0.286186 0  0.262388 0.75153 0  0.063044 0.751571 0  0.068189 0.242962 0  0.435781 0.9053949999999999 0  0.934144 0.451133 0  0.568393 0.237622 0  0.814984 0.395506 0  0.752951 0.517227 0  0.456254 0.780699 0  0.073352 0.531116 0  0.337731 0.206071 0  0.363213 0.960371 0  0.330742 0.363592 0  0.516613 0.55705 0  0.369057 0.332992 0  0.500926 0.617309 0  0.498004 0.665534 0  0.412142 0.61178 0  0.454233 0.6366039999999999 0  0.422782 0.567496 0  0.541193 0.5214800000000001 0  0.439761 0.65557 0  0.5163 0.533672 0  0.414775 0.64562 0  0.40073 0.576135 0  0.430362 0.5880339999999999 0  0.385432 0.351492 0  0.400298 0.335397 0  0.398325 0.348194 0  0.528702 0.314885 0  0.540814 0.322334 0  0.534477 0.322953 0  0.619095 0.743583 0  0.885162 0.737972 0  0.08076 0.668849 0  0.90734 0.36634 0  0.09468699999999999 0.868937 0  0.759838 0.912152 0  0.901518 0.540898 0  0.747285 0.607479 0  0.229182 0.071641 0  0.06915399999999999 0.450091 0  0.244775 0.203309 0  0.076534 0.331755 0  0.897847 0.167826 0  0.578909 0.911415 0  0.07713299999999999 0.146341 0  0.477215 0.203448 0  0.922631 0.869341 0  0.517415 0.074785 0  0.297026 0.827793 0  0.7832710000000001 0.246505 0  0.74519 0.061079 0  0.36033 0.069068 0  0.210313 0.475228 0  0.859426 0.928758 0  0.5745479999999999 0.609182 0  0.243069 0.383398 0  0.283099 0.934598 0  0.417416 0.843141 0  0.643942 0.553164 0  0.112687 0.079336 0  0.281357 0.658386 0  0.765043 0.436177 0  0.611361 0.198486 0  0.234496 0.58911 0  0.206479 0.702638 0  0.679608 0.155818 0  0.62682 0.259978 0  0.690538 0.264164 0  0.448938 0.956308 0  0.808154 0.328403 0  0.379583 0.91913 0  0.308083 0.297769 0  0.312358 0.730249 0  0.563101 0.278576 0  0.435597 0.746198 0  0.385475 0.225229 0  0.572248 0.518034 0  0.357864 0.35422 0  0.497647 0.641694 0  0.458101 0.655768 0  0.360474 0.310727 0  0.467038 0.620139 0  0.47798 0.659909 0  0.41102 0.628072 0  0.48324 0.609015 0  0.427544 0.617941 0  0.388633 0.328253 0  0.405336 0.599404 0  0.408351 0.565178 0  0.42395 0.600985 0  0.431562 0.576523 0  0.424905 0.6551979999999999 0  0.398064 0.58782 0  0.427739 0.557934 0  0.5192909999999999 0.303443 0  0.53142 0.320293 0  0.5449000000000001 0.323642 0  0.537166 0.323513 0  0.153974 0.920841 0  0.9181859999999999 0.67343 0  0.759946 0.820588 0  0.5375259999999999 0.783091 0  0.816532 0.545843 0  0.813991 0.178083 0  0.836774 0.702023 0  0.149815 0.318856 0  0.662287 0.923338 0  0.680146 0.791192 0  0.708961 0.663172 0  0.9372779999999999 0.287318 0  0.574622 0.6881660000000001 0  0.5894740000000001 0.076262 0  0.502822 0.926683 0  0.222269 0.811068 0  0.380457 0.164786 0  0.15321 0.684154 0  0.458063 0.051413 0  0.161702 0.056026 0  0.199351 0.198818 0  0.298946 0.09553200000000001 0  0.902465 0.795949 0  0.121139 0.791477 0  0.906269 0.112287 0  0.056109 0.822332 0  0.512172 0.13237 0  0.940964 0.741805 0  0.888887 0.408777 0  0.354543 0.825964 0  0.808736 0.068638 0  0.068507 0.394071 0  0.719105 0.563843 0  0.247287 0.149664 0  0.293062 0.237128 0  0.240524 0.434997 0  0.141255 0.623289 0  0.945202 0.160621 0  0.502914 0.247629 0  0.144669 0.480811 0  0.665025 0.060817 0  0.728047 0.224344 0  0.861995 0.313312 0  0.200068 0.534235 0  0.253262 0.965623 0  0.893804 0.49307 0  0.604391 0.572456 0  0.947088 0.345347 0  0.439372 0.227307 0  0.629847 0.159823 0  0.273405 0.880181 0  0.302744 0.776823 0  0.781502 0.295365 0  0.275342 0.349602 0  0.7283849999999999 0.472798 0  0.229136 0.246478 0  0.807794 0.480346 0  0.709476 0.112786 0  0.275506 0.694991 0  0.771674 0.394419 0  0.449715 0.861802 0  0.419159 0.799696 0  0.674851 0.503139 0  0.280443 0.61016 0  0.572443 0.192538 0  0.393113 0.87525 0  0.405555 0.948428 0  0.330942 0.934103 0  0.540509 0.597101 0  0.312763 0.6689310000000001 0  0.254368 0.540179 0  0.595265 0.25915 0  0.606679 0.234099 0  0.657131 0.279138 0  0.722458 0.279478 0  0.333 0.308056 0  0.351529 0.246142 0  0.455714 0.7257940000000001 0  0.585239 0.295143 0  0.340062 0.72492 0  0.545593 0.293773 0  0.555449 0.545426 0  0.414311 0.737314 0  0.590854 0.502323 0  0.350507 0.368444 0  0.484423 0.625665 0  0.483899 0.674542 0  0.378137 0.317274 0  0.446416 0.646404 0  0.373532 0.347654 0  0.446876 0.619769 0  0.466106 0.666068 0  0.437545 0.609254 0  0.434988 0.565726 0  0.41462 0.656829 0  0.418803 0.556961 0  0.398425 0.327446 0  0.517803 0.310421 0  0.549516 0.322918 0  0.57701 0.842889 0  0.8291269999999999 0.773906 0  0.643235 0.684732 0  0.134281 0.207734 0  0.865997 0.055966 0  0.680959 0.723345 0  0.165229 0.8415550000000001 0  0.54558 0.959672 0  0.783726 0.656439 0  0.913315 0.595533 0  0.699439 0.860667 0  0.785839 0.125076 0  0.551673 0.037713 0  0.9200970000000001 0.223214 0  0.206406 0.299726 0  0.087064 0.596401 0  0.935644 0.394252 0  0.964557 0.252582 0  0.230124 0.928346 0  0.120579 0.271764 0  0.8572149999999999 0.524082 0  0.7670979999999999 0.5551469999999999 0  0.936094 0.507131 0  0.804064 0.59585 0  0.700565 0.608273 0  0.429773 0.174231 0  0.117746 0.727333 0  0.5389620000000001 0.730231 0  0.862761 0.359173 0  0.821444 0.284046 0  0.193552 0.35818 0  0.234923 0.505555 0  0.193209 0.421217 0  0.220144 0.755896 0  0.594015 0.131642 0  0.283813 0.195855 0  0.517519 0.213961 0  0.553509 0.639116 0  0.280391 0.378018 0  0.852183 0.436817 0  0.746983 0.197173 0  0.821806 0.221318 0  0.449853 0.828453 0  0.883758 0.453926 0  0.183484 0.589542 0  0.348384 0.129314 0  0.255254 0.838525 0  0.504849 0.798516 0  0.320344 0.863432 0  0.611669 0.525425 0  0.265864 0.804962 0  0.72056 0.521442 0  0.613372 0.6101220000000001 0  0.481262 0.881068 0  0.655778 0.191988 0  0.701921 0.196918 0  0.5658260000000001 0.5731810000000001 0  0.46914 0.240927 0  0.343219 0.173284 0  0.888786 0.278502 0  0.244113 0.6750930000000001 0  0.739546 0.417914 0  0.784023 0.355942 0  0.326805 0.265549 0  0.248616 0.6
[...]
<PointData  Vectors="f_21"> 
<DataArray  type="Float64"  Name="f_21"  NumberOfComponents="3" format="ascii">5.0574400005067160e-03 -1.4424939637922389e-03 0.0000000000000000e+00  3.1235915963708206e-03 -5.3041919822668416e-04 0.0000000000000000e+00  9.7241175565512231e-04 -9.1577124418113894e-05 0.0000000000000000e+00  3.9806536415804965e-04 -4.2199455200376348e-05 0.0000000000000000e+00  1.6092576322071945e-04 -2.1800160306783921e-05 0.0000000000000000e+00  3.3737234037164037e-05 -5.2854685642514421e-06 0.0000000000000000e+00  1.0184928633913542e-05 -2.1086395088237245e-06 0.0000000000000000e+00  5.3216998047557365e-07 4.8650890820037871e-07 0.0000000000000000e+00  8.8204166747096950e-08 1.2584308092773366e-07 0.0000000000000000e+00  5.6811341074105865e-08 1.2101597922193479e-07 0.0000000000000000e+00  1.2664147786860591e-08 1.0443492327648019e-07 0.0000000000000000e+00  -8.3191549341044164e-09 8.1154506613222773e-08 0.0000000000000000e+00  -3.1689829765325148e-08 2.0643292881159351e-08 0.0000000000000000e+00  -7.0220824932970881e-09 -2.7096400947233916e-08 0.0000000000000000e+00  6.7483184299563693e-10 -4.9005395789903089e-09 0.0000000000000000e+00  3.0475739967189762e-11 -5.2714526672167220e-10 0.0000000000000000e+00  -1.0891329265488987e-11 1.0414594628896967e-11 0.0000000000000000e+00  9.9692316209489396e-11 5.8297065590299402e-10 0.0000000000000000e+00  2.6337983399749496e-10 2.9532088723177391e-09 0.0000000000000000e+00  -2.7563648118095400e-10 1.1598597080419454e-08 0.0000000000000000e+00  -1.5665107639071363e-08 3.7221634916698102e-08 0.0000000000000000e+00  -1.8604033139622442e-08 2.9457137563366763e-08 0.0000000000000000e+00  9.4041638849834985e-08 4.2322517915971287e-08 0.0000000000000000e+00  5.4713623202264258e-06 2.3965158414388806e-07 0.0000000000000000e+00  2.1742354818505980e-05 -2.2499220241565182e-06 0.0000000000000000e+00  4.4844761977514796e-05 -3.3449941466767496e-06 0.0000000000000000e+00  9.0354382751654490e-05 -8.0952926886304966e-06 0.0000000000000000e+00  1.4687556795824693e-04 -2.2973209366334093e-06 0.0000000000000000e+00  2.3925249658031980e-04 3.3225758800053215e-05 0.0000000000000000e+00  3.6612415797409730e-04 9.2885350196432036e-05 0.0000000000000000e+00  1.0377162532368379e-03 -8.4527544331189869e-06 0.0000000000000000e+00  1.3197165433887540e-03 -9.7710494975950118e-05 0.0000000000000000e+00  9.1560777047633532e-04 -8.8761999707025468e-05 0.0000000000000000e+00  4.6433096408207664e-04 -8.0097488912423935e-05 0.0000000000000000e+00  2.9840604427753821e-04 -5.1164786068204980e-05 0.0000000000000000e+00  2.3565411813323723e-04 6.1863284246146970e-07 0.0000000000000000e+00  1.9193355228157026e-04 1.8050366888313406e-05 0.0000000000000000e+00  1.2329293501343804e-04 3.4321672821976388e-05 0.0000000000000000e+00  3.8692304221903855e-05 3.9995835070847777e-05 0.0000000000000000e+00  1.8561369022721232e-05 3.2810104140325465e-05 0.0000000000000000e+00  1.6723982695495542e-06 2.1464091580483895e-05 0.0000000000000000e+00  -3.7534167758613892e-06 1.2236962157504424e-05 0.0000000000000000e+00  -4.5347088668831019e-06 5.4582097568329018e-06 0.0000000000000000e+00  -2.3707188709363454e-06 -1.4761568315443412e-06 0.0000000000000000e+00  5.0846690113388311e-06 -8.9980879689615635e-06 0.0000000000000000e+00  2.3585268224642626e-05 -1.1240198803556819e-05 0.0000000000000000e+00  9.7779745875754877e-05 -2.5067520817023059e-06 0.0000000000000000e+00  4.0548837725739656e-04 -2.0502265922016921e-05 0.0000000000000000e+00  1.0063364311036088e-03 -5.4895889940619003e-05 0.0000000000000000e+00  1.6056521794520124e-03 -1.1072855174161282e-04 0.0000000000000000e+00  2.3048337754824570e-03 -2.4842384120768121e-04 0.0000000000000000e+00  3.0614405058690176e-03 -4.8075057042608560e-04 0.0000000000000000e+00  4.4750569171621872e-03 -5.2911843881503430e-04 0.0000000000000000e+00  6.0658003667564955e-03 -4.7054924039504974e-05 0.0000000000000000e+00  1.0294386222856488e-02 1.0361895138079299e-03 0.0000000000000000e+00  1.7878207770843129e-02 2.7832218976862229e-03 0.0000000000000000e+00  2.8255224959661679e-02 3.9365506005881058e-03 0.0000000000000000e+00  4.4969646795432978e-02 3.0523424676956248e-03 0.0000000000000000e+00  6.2776614560358296e-02 2.9252144808399796e-03 0.0000000000000000e+00  7.6675072902318009e-02 1.5956374174712971e-03 0.0000000000000000e+00  9.2104357862915487e-02 -3.1516004378134339e-04 0.0000000000000000e+00  1.0563582725805737e-01 -1.9003770342928801e-03 0.0000000000000000e+00  1.1723246180718046e-01 -8.8183528433833595e-04 0.0000000000000000e+00  1.2306302654384017e-01 8.8762750249017186e-04 0.0000000000000000e+00  1.2441266374949024e-01 2.2455845712729561e-03 0.0000000000000000e+00  1.2511665236748201e-01 3.7825676883736568e-03 0.0000000000000000e+00  1.2306144734944853e-01 3.1270187406729328e-03 0.0000000000000000e+00  1.0924998415758350e-01 4.7804705298250380e-04 0.0000000000000000e+00  9.1889601753537636e-02 -2.3060862181364652e-03 0.0000000000000000e+00  7.0856998866711013e-02 -9.1797400909696784e-03 0.0000000000000000e+00  5.9366603986815862e-02 -1.2617840884952046e-02 0.0000000000000000e+00  4.8543416820022132e-02 -1.2555983246693100e-02 0.0000000000000000e+00  3.5108501703276299e-02 -1.0031825774889060e-02 0.0000000000000000e+00  1.7673867273298317e-02 -5.7392636187923850e-03 0.0000000000000000e+00  9.2868387411537620e-03 -3.7730062709421261e-03 0.0000000000000000e+00  6.8897751076186257e-03 -2.7476014279307743e-03 0.0000000000000000e+00  5.2417610553905473e-03 -1.6219134768383073e-03 0.0000000000000000e+00  3.0936866108955968e-01 -8.6625298389976346e-02 0.0000000000000000e+00  3.0940940044763166e-01 8.6938676324649480e-02 0.0000000000000000e+00  0.0000000000000000e+00 0.0000000000000000e+00 0.0000000000000000e+00  0.0000000000000000e+00 0.0000000000000000e+00 0.0000000000000000e+00  4.8735518573282061e-03 -1.2919932995475785e-03 0.0000000000000000e+00  4.5870197707972528e-03 -1.1211059366385749e-03 0.0000000000000000e+00  4.1944167390143908e-03 -9.2678206140329946e-04 0.0000000000000000e+00  3.7109812117020178e-03 -7.2666134849877907e-04 0.0000000000000000e+00  2.6455892248650344e-03 -4.0230156795610769e-04 0.0000000000000000e+00  2.0932418736899295e-03 -2.7052318025329856e-04 0.0000000000000000e+00  1.5460185080819117e-03 -1.7207496158620948e-04 0.0000000000000000e+00  6.5444114804319572e-04 -6.2753289267211272e-05 0.0000000000000000e+00  9.3335758737386301e-05 -1.7208960711443604e-05 0.0000000000000000e+00  5.7004851739782557e-05 -9.1954468565393684e-06 0.0000000000000000e+00  4.0041539907703704e-06 7.7795279495336457e-07 0.0000000000000000e+00  1.4589207121070481e-06 8.5088620097260897e-07 0.0000000000000000e+00  2.0689323446985556e-07 2.3912372289626657e-07 0.0000000000000000e+00  1.2238841461998989e-07 1.5266286927700539e-07 0.0000000000000000e+00  3.6695309290738303e-08 1.1304137113340716e-07 0.0000000000000000e+00  -1.5493926841694568e-08 6.5798523913547370e-08 0.0000000000000000e+00  -2.4520007920476715e-08 4.7632513022425813e-08 0.0000000000000000e+00  -3.0658782138125544e-08 -8.0377676628312059e-09 0.0000000000000000e+00  -2.1030362008508059e-08 -2.4999801091340084e-08 0.0000000000000000e+00  -3.5832017216637480e-10 -1.5033876059399229e-08 0.0000000000000000e+00  1.5087411937677019e-11 1.8970411570173976e-10 0.0000000000000000e+00  -5.1260202570317959e-09 2.5215736317509163e-08 0.0000000000000000e+00  5.5097213477669081e-07 -2.7590657841063246e-08 0.0000000000000000e+00  1.9464693249644618e-06 -1.8570987259551803e-07 0.0000000000000000e+00  6.7534021546020767e-05 -6.4432871862236740e-06 0.0000000000000000e+00  1.1123403258971554e-04 -6.9533003174609293e-06 0.0000000000000000e+00  5.9534887330368435e-04 1.1187794806689716e-04 0.0000000000000000e+00  6.8562265476090488e-04 -1.0014876717363367e-04 0.0000000000000000e+00  2.5554108682561676e-04 -2.3063689618721194e-05 0.0000000000000000e+00  1.5824917835638742e-04 2.5151017902376437e-05 0.0000000000000000e+00  8.1986529855943081e-05 3.9679509400353561e-05 0.0000000000000000e+00  5.6306778905477774e-05 4.0328279857546199e-05 0.0000000000000000e+00  1.0011358555570825e-05 2.6959401650972603e-05 0.0000000000000000e+00  1.0877651233634711e-05 -9.3653748586216106e-06 0.0000000000000000e+00  6.5596279223525294e-04 -2.9913567175618337e-05 0.0000000000000000e+00  3.7911893595790878e-03 -5.3342447763056586e-04 0.0000000000000000e+00  1.4126011174525981e-02 1.9430382848825436e-03 0.0000000000000000e+00  3.6902407492045639e-02 3.8755551832108351e-03 0.0000000000000000e+00  8.3826788002957148e-02 5.1036848060408331e-04 0.0000000000000000e+00  1.1290873531900800e-01 -1.5594577968152594e-03 0.0000000000000000e+00  1.2099702268090506e-01 9.9768027728745052e-05 0.0000000000000000e+00  1.2491811911659169e-01 3.3065697423706429e-03 0.0000000000000000e+00  1.1904869819854266e-01 3.0892494007394630e-03 0.0000000000000000e+00  8.1171012976562595e-02 -6.2301452256122289e-03 0.0000000000000000e+00  2.5418639785600966e-02 -7.8776105993680658e-03 0.0000000000000000e+00  1.2100530282305975e-02 -4.5487107697098281e-03 0.0000000000000000e+00  7.6472451309989465e-03 -3.1738980585588623e-03 0.0000000000000000e+00  6.3186859893128227e-03 -2.3119529691529453e-03 0.0000000000000000e+00  5.8391565851059991e-03 -1.9930980860872259e-03 0.0000000000000000e+00  5.4885854610922198e-03 -1.7745318630589702e-03 0.0000000000000000e+00  2.9093037772323571e-01 -5.4312479275770549e-02 0.0000000000000000e+00  2.8127178419426579e-01 -2.4429701438215597e-02 0.0000000000000000e+00  2.8051669617419250e-01 -7.4046878567516523e-03 0.0000000000000000e+00  2.7997704329616147e-01 -1.2798666467960819e-03 0.0000000000000000e+00  2.7967427241949799e-01 8.6096121749688331e-05 0.0000000000000000e+00  2.8022149107176442e-01 1.3137873694252179e-03 0.0000000000000000e+00  2.8104783620706431e-01 7.1545910637118718e-03 0.0000000000000000e+00  2.8150693443375208e-01 2.4189191644741030e-02 0.0000000000000000e+00  2.9074335446733135e-01 5.4511471456348860e-02 0.0000000000000000e+00  2.1743175895687558e-01 6.8173646501277926e-02 0.0000000000000000e+00  1.2788493062550432e-01 4.2868576827444764e-02 0.0000000000000000e+00  5.8401515267410525e-02 1.9018399190008205e-02 0.0000000000000000e+00  1.4467673204576861e-02 4.7227531438305114e-03 0.0000000000000000e+00  1.0630965546203222e-03 2.8648517253437780e-04 0.0000000000000000e+00  3.0986642274226097e-05 1.0092687409790881e-05 0.0000000000000000e+00  4.7397140715807199e-07 2.1435142108001481e-07 0.0000000000000000e+00  8.5419852171352729e-09 3.9290686843512222e-09 0.0000000000000000e+00  4.0313411259743054e-11 2.8277927445851310e-11 0.0000000000000000e+00  -8.2292799921199041e-12 1.1879936393414020e-10 0.0000000000000000e+00  1.4960793871599991e-09 2.4955608320368423e-09 0.0000000000000000e+00  1.7701708671923751e-07 -6.9006385734730933e-08 0.0000000000000000e+00  1.9757669219134888e-05 -6.1846025484172234e-06 0.0000000000000000e+00  9.5647382673296605e-04 -2.5678592943298255e-04 0.0000000000000000e+00  1.4500438883647760e-02 -4.6127523770262422e-03 0.0000000000000000e+00  5.8371716818029384e-02 -1.9247475326254867e-02 0.0000000000000000e+00  1.2807602942710491e-01 -4.2941326787649933e-02 0.0000000000000000e+00  2.1739868486306010e-01 -6.8171582028485750e-02 0.0000000000000000e+00  0.0000000000000000e+00 0.0000000000000000e+00 0.0000000000000000e+00  0.0000000000000000e+00 0.0000000000000000e+00 0.0000000000000000e+00  0.0000000000000000e+00 0.0000000000000000e+00 0.0000000000000000e+00  0.0000000000000000e+00 0.0000000000000000e+00 0.0000000000000000e+00  0.0000000000000000e+00 0.0000000000000000e+00 0.0000000000000000e+00  0.0000000000000000e+00 0.0000000000000000e+00 0.0000000000000000e+00  0.0000000000000000e+00 0.0000000000000000e+00 0.0000000000000000e+00  0.0000000000000000e+00 0.0000000000000000e+00 0.0000000000000000e+00  0.0000000000000000e+00 0.0000000000000000e+00 0.0000000000000000e+00  7.6512917736825531e-03 3.5899227324459653e-04 0.0000000000000000e+00  8.1890970230348969e-02 -2.2398070929181648e-03 0.0000000000000000e+00  2.3076592310329757e-09 7.8676807156548196e-10 0.0000000000000000e+00  1.2149783590115326e-08 -2.1249419531654884e-09 0.0000000000000000e+00  6.5706524824018578e-02 4.3121107984572587e-03 0.0000000000000000e+00  5.3617456054572332e-03 1.5901151737377449e-04 0.0000000000000000e+00  1.5682016541879096e-01 2.1983277633555532e-03 0.0000000000000000e+00  8.9170769560557969e-04 -6.0675691356022125e-05 0.0000000000000000e+00  4.0098571650442892e-12 3.4994376147699138e-12 0.0000000000000000e+00  2.5461454418802608e-06 2.4631658895187843e-07 0.0000000000000000e+00  5.5669334454923041e-06 -9.4861173099327350e-07 0.0000000000000000e+00  3.1357383386447839e-11 9.8754522855575905e-12 0.0000000000000000e+00  1.6490224230750594e-11 -7.7126421736652029e-12 0.0000000000000000e+00  2.3843070783997292e-01 -5.6419304008372625e-02 0.0000000000000000e+00  2.3803963680359166e-01 5.8266875776507972e-02 0.0000000000000000e+00  -9.8849621259297994e-09 -1.5849341635060437e-07 0.0000000000000000e+00  7.4452537017886337e-04 -5.5896136561248625e-05 0.0000000000000000e+00  2.5428394195602420e-04 -2.5861840871357595e-05 0.0000000000000000e+00  2.6802452933060607e-05 1.9952506841981435e-05 0.0000000000000000e+00  4.4931960421147697e-03 1.1170027295680472e-04 0.0000000000000000e+00  2.7190065967289383e-08 8.9518354325642817e-08 0.0000000000000000e+00  4.7409059948039893e-03 -1.4253216743507400e-03 0.0000000000000000e+00  1.1967566350889002e-10 -8.9647819651703703e-11 0.0000000000000000e+00  1.4027475765571484e-01 -1.8017091348453002e-02 0.0000000000000000e+00  2.3150751031040532e-02 -1.3447585860132773e-03 0.0000000000000000e+00  1.5636353966052410e-01 -1.1788897557123085e-03 0.0000000000000000e+00  3.2220901222134384e-02 2.1657953077569049e-04 0.0000000000000000e+00  1.6205111170737765e-01 6.7653286358690182e-03 0.0000000000000000e+00  5.4622260618798187e-09 9.9731353365381347e-10 0.0000000000000000e+00  2.8866875689384217e-08 -3.2499434156487624e-09 0.0000000000000000e+00  3.6908091310537829e-04 3.8461099276665444e-05 0.0000000000000000e+00  1.4845578697834153e-01 2.7870342002880272e-02 0.0000000000000000e+00  5.5111494180586138e-10 5.6542079757358576e-10 0.0000000000000000e+00  2.5640744205414574e-02 1.9054084015633157e-03 0.0000000000000000e+00  3.8551081163949778e-02 -5.1133464260711390e-04 0.0000000000000000e+00  1.9606816224985641e-07 -8.7784382143228927e-08 0.0000000000000000e+00  1.3740993780434796e-07 5.9028037315000058e-08 0.0000000000000000e+00  2.2227077947562091e-11 4.4537848825217856e-12 0.0000000000000000e+00  1.4548160473590518e-10 -1.7377760254229052e-11 0.0000000000000000e+00  1.2358562550638248e-04 -1.1244188457075348e-05 0.0000000000000000e+00  2.2549563366746941e-01 5.4985805378014166e-04 0.0000000000000000e+00  7.4875287258693735e-03 -4.3084140902020134e-04 0.0000000000000000e+00  1.4197729280752697e-01 3.6836268859712176e-03 0.0000000000000000e+00  8.5667491769172696e-02 4.1178883052155500e-03 0.0000000000000000e+00  3.7362523042473077e-04 -1.4011797979204021e-05 0.0000000000000000e+00  3.2380031868817903e-13 5.5789313417872652e-15 0.0000000000000000e+00  9.3845261914531943e-06 5.1405866828622013e-07 0.0000000000000000e+00  5.7201750838787613e-06 -1.5914508754702008e-06 0.0000000000000000e+00  -1.3384391732222642e-08 -5.4671539655192700e-08 0.0000000000000000e+00  3.1840942589192503e-03 -5.4739141604768320e-06 0.0000000000000000e+00  6.8672912919917152e-10 6.7559252224080320e-08 0.0000000000000000e+00  1.6568286646762140e-03 4.7530310121630593e-06 0.0000000000000000e+00  1.4957246138573258e-03 -8.9569575383505987e-05 0.0000000000000000e+00  1.0427146158036320e-04 2.0979349371472860e-05 0.0000000000000000e+00  4.4422469285310909e-04 -5.1901822082481221e-05 0.0000000000000000e+00  6.9825211582331377e-06 8.8630672624654030e-06 0.0000000000000000e+00  6.2057408041875858e-03 3.1178138525185794e-04 0.0000000000000000e+00  3.3087202099819457e-04 -4.5804572587673697e-05 0.0000000000000000e+00  3.9812438085925494e-03 -1.2843735931135334e-04 0.0000000000000000e+00  1.8449459202320951e-04 -5.7041058484331881e-06 0.0000000000000000e+00  1.7736205143898401e-05 2.2450787164880811e-05 0.0000000000000000e+00  4.2509637491186605e-05 1.2462281522414816e-05 0.0000000000000000e+00  -1.9448333583937624e-09 5.6225118166965143e-08 0.0000000000000000e+00  5.4108883751242756e-08 1.0671761702235926e-07 0.0000000000000000e+00  1.4390924081656466e-08 8.2656299332547883e-08 0.0000000000000000e+00  3.9637592673108790e-03 -1.0427289226610478e-03 0.0000000000000000e+00  5.1293334066711462e-03 -1.6302853254293100e-03 0.0000000000000000e+00  4.8148531393323079e-03 -1.3842118436087310e-03 0.0000000000000000e+00  1.9644065466892499e-02 -2.5550231237686088e-04 0.0000000000000000e+00  1.8130438264212784e-01 -8.0417700505138381e-03 0.0000000000000000e+00  1.1942415397070858e-11 5.7255084300482156e-12 0.0000000000000000e+00  2.0521305272262741e-01 1.9837882624937587e-03 0.0000000000000000e+00  8.3514549566708908e-11 -1.5590162967613693e-11 0.0000000000000000e+00  8.3209847668313172e-02 -1.5620813989675799e-02 0.0000000000000000e+00  1.9823769710153522e-01 7.3996294062532965e-05 0.0000000000000000e+00  7.9441716767158679e-02 2.7414178772493556e-04 0.0000000000000000e+00  5.3311072853377796e-08 1.7064777317588005e-08 0.0000000000000000e+00  2.4937302679601092e-12 -2.0877963277440581e-12 0.0000000000000000e+00  3.0031301067508164e-07 1.8950876336194635e-09 0.0000000000000000e+00  7.0746091637924105e-11 -2.6232092512917028e-11 0.0000000000000000e+00  1.9169963124576930e-01 2.2272981312462126e-02 0.0000000000000000e+00  8.0937647461019144e-03 -5.6663847475160278e-04 0.0000000000000000e+00  9.7004991145844899e-11 8.9673506130165461e-12 0.0000000000000000e+00  7.7660159249198627e-04 2.3702727132331606e-06 0.0000000000000000e+00  2.1550253180367265e-01 -3.3932557700624415e-02 0.0000000000000000e+00  1.8570308686312320e-03 1.8660544218603131e-04 0.0000000000000000e+00  1.0316137242830202e-06 -6.4409963755638970e-08 0.0000000000000000e+00  1.0295827304119670e-01 8.8522742088592283e-04 0.0000000000000000e+00  7.6208583871250582e-02 1.6916237810097576e-02 0.0000000000000000e+00  1.0160551720673267e-05 2.4151539989317409e-06 0.0000000000000000e+00  6.5944873249994980e-11 -1.0833060972198482e-10 0.0000000000000000e+00  1.6564319946115824e-01 -3.8042055794643585e-02 0.0000000000000000e+00  8.9595099605328937e-03 -2.0047297252750920e-05 0.0000000000000000e+00  4.8251868183934836e-09 -7.6936836630526489e-09 0.0000000000000000e+00  3.0652472404659169e-07 -7.2244633367114907e-08 0.0000000000000000e+00  8.5808904992763755e-05 -7.8416086510991153e-06 0.0000000000000000e+00  2.9024210088008880e-02 7.0849033316658285e-04 0.0000000000000000e+00  4.4180057240150159e-10 9.9105258440673631e-11 0.0000000000000000e+00  4.2660260848639257e-09 1.1273074479725524e-08 0.0000000000000000e+00  1.1017379723208057e-01 7.8829449818774606e-03 0.0000000000000000e+00  1.6635287299967640e-02 1.3344961390070885e-05 0.0000000000000000e+00  1.1909168327609021e-10 2.1435985935957495e-10 0.0000000000000000e+00  4.4736046022318571e-09 2.9465554774318697e-09 0.0000000000000000e+00  3.9881135006909853e-02 2.0675090253191464e-03 0.0000000000000000e+00  2.1899526639092906e-02 -2.2037057064303658e-03 0.0000000000000000e+00  5.0602888111977481e-02 -3.9626922870782226e-03 0.0000000000000000e+00  1.6578032210017314e-04 -3.5464613400985182e-05 0.0000000000000000e+00  1.3553711391665782e-01 -2.1200182807876236e-03 0.0000000000000000e+00  1.5032472811285034e-05 -2.6022670288460232e-06 0.0000000000000000e+00  8.4932904914492044e-07 -7.3001028939920647e-07 0.0000000000000000e+00  3.1427161658772700e-07 3.5354593530333770e-07 0.0000000000000000e+00  6.6948670838640591e-03 -1.1530326870471598e-03 0.0000000000000000e+00  2.0885756189244426e-04 1.1263204938099032e-05 0.0000000000000000e+00  4.8976311917339207e-05 1.5938739013782097e-06 0.0000000000000000e+00  1.0596154868287817e-02 8.7848990889913010e-04 0.0000000000000000