<?xml version="1.0"?>
<VTKFile type="UnstructuredGrid"  version="0.1"  >
<UnstructuredGrid>
<Piece  NumberOfPoints="2868" NumberOfCells="5400">
<Points>
<DataArray  type="Float64"  NumberOfComponents="3"  format="ascii">0.534923 0.326073 0  0.510642 0.314196 0  0.466125 0.293082 0  0.436448 0.281205 0  0.409468 0.275927 0  0.368998 0.270648 0  0.35281 0.275927 0  0.381139 0.302319 0  0.405421 0.326073 0  0.410817 0.33531 0  0.408119 0.349826 0  0.400025 0.357744 0  0.375743 0.368301 0  0.329878 0.392055 0  0.297502 0.432963 0  0.282663 0.476511 0  0.285361 0.524018 0  0.298851 0.572845 0  0.317737 0.6045160000000001 0  0.337972 0.6361869999999999 0  0.360904 0.674457 0  0.368998 0.69953 0  0.359555 0.7219640000000001 0  0.360904 0.757594 0  0.370347 0.766831 0  0.381139 0.762872 0  0.390582 0.741758 0  0.404072 0.720644 0  0.424307 0.707448 0  0.447239 0.702169 0  0.480964 0.704808 0  0.479615 0.6889729999999999 0  0.468823 0.675776 0  0.447239 0.6691780000000001 0  0.428354 0.6691780000000001 0  0.410817 0.6639 0  0.404072 0.653343 0  0.395978 0.628269 0  0.387884 0.59132 0  0.389233 0.576804 0  0.397327 0.557009 0  0.410817 0.547772 0  0.424307 0.546452 0  0.437797 0.55305 0  0.44589 0.5662469999999999 0  0.441843 0.582082 0  0.439145 0.5979179999999999 0  0.449937 0.609795 0  0.468823 0.603196 0  0.479615 0.59 0  0.489058 0.570205 0  0.494454 0.546452 0  0.505246 0.522699 0  0.522783 0.509502 0  0.55246 0.494986 0  0.586185 0.484429 0  0.615863 0.48047 0  0.64554 0.473872 0  0.6671240000000001 0.461995 0  0.683312 0.451438 0  0.696802 0.435603 0  0.703547 0.417128 0  0.7116400000000001 0.393374 0  0.7183850000000001 0.37226 0  0.7251300000000001 0.364342 0  0.739969 0.353785 0  0.7453650000000001 0.344548 0  0.7453650000000001 0.327393 0  0.737271 0.318155 0  0.7183850000000001 0.316835 0  0.7008490000000001 0.319475 0  0.677916 0.318155 0  0.650936 0.316835 0  0.610467 0.318155 0  0.57944 0.324753 0  0.559205 0.328712 0  0.5389699999999999 0.326073 0  1 1 0  1 0 0  0 0 0  0 1 0  0.532238 0.32476 0  0.528748 0.323052 0  0.52421 0.320833 0  0.518311 0.317947 0  0.503447 0.310783 0  0.494093 0.306347 0  0.481933 0.30058 0  0.452151 0.28749 0  0.392327 0.273691 0  0.379141 0.271971 0  0.360474 0.283066 0  0.369797 0.291752 0  0.391424 0.31238 0  0.399335 0.32012 0  0.40958 0.341964 0  0.393939 0.36039 0  0.386028 0.36383 0  0.364248 0.374254 0  0.349304 0.381994 0  0.315801 0.409841 0  0.292986 0.551616 0  0.350934 0.657818 0  0.360127 0.737055 0  0.360566 0.748664 0  0.385245 0.753692 0  0.396447 0.732578 0  0.466301 0.703661 0  0.459439 0.672908 0  0.418442 0.666195 0  0.400553 0.642441 0  0.39255 0.612619 0  0.389913 0.60058 0  0.392752 0.568197 0  0.444131 0.573132 0  0.458149 0.606926 0  0.5005540000000001 0.533026 0  0.571522 0.489019 0  0.632637 0.476741 0  0.689177 0.444553 0  0.708121 0.403702 0  0.715453 0.38144 0  0.732406 0.359166 0  0.7453650000000001 0.337089 0  0.72906 0.317581 0  0.629879 0.317522 0  0.59293 0.321884 0  0.568003 0.326991 0  0.55202 0.327775 0  0.546493 0.327054 0  0.542241 0.326499 0  1 0.9 0  1 0.8 0  1 0.7 0  1 0.6 0  1 0.5 0  1 0.4 0  1 0.3 0  1 0.2 0  1 0.1 0  0.9 0 0  0.8 0 0  0.7 0 0  0.6 0 0  0.5 0 0  0.4 0 0  0.3 0 0  0.2 0 0  0.1 0 0  0.1 1 0  0.2 1 0  0.3 1 0  0.4 1 0  0.5 1 0  0.6 1 0  0.7 1 0  0.8 1 0  0.9 1 0  0 0.1 0  0 0.2 0  0 0.3 0  0 0.4 0  0 0.5 0  0 0.6 0  0 0.7 0  0 0.8 0  0 0.9 0  0.535686 0.5031910000000001 0  0.753987 0.733359 0  0.167145 0.741436 0  0.173378 0.257204 0  0.733497 0.159862 0  0.554096 0.15788 0  0.849187 0.479053 0  0.488793 0.838452 0  0.138507 0.5592 0  0.30686 0.154944 0  0.348904 0.890523 0  0.058006 0.065099 0  0.06984899999999999 0.937917 0  0.93633 0.939704 0  0.934625 0.053613 0  0.343397 0.333452 0  0.473272 0.639943 0  0.433266 0.638072 0  0.415174 0.58269 0  0.533435 0.545042 0  0.390848 0.340652 0  0.53655 0.320242 0  0.127966 0.393775 0  0.83861 0.850455 0  0.635242 0.8551299999999999 0  0.852158 0.633441 0  0.653427 0.626848 0  0.861226 0.24292 0  0.166128 0.12976 0  0.216875 0.8698709999999999 0  0.458305 0.11179 0  0.84446 0.101633 0  0.202024 0.642528 0  0.644825 0.115855 0  0.671342 0.218358 0  0.251354 0.286186 0  0.262388 0.75153 0  0.063044 0.751571 0  0.068189 0.242962 0  0.435781 0.9053949999999999 0  0.934144 0.451133 0  0.568393 0.237622 0  0.814984 0.395506 0  0.752951 0.517227 0  0.456254 0.780699 0  0.073352 0.531116 0  0.337731 0.206071 0  0.363213 0.960371 0  0.330742 0.363592 0  0.516613 0.55705 0  0.369057 0.332992 0  0.500926 0.617309 0  0.498004 0.665534 0  0.412142 0.61178 0  0.454233 0.6366039999999999 0  0.422782 0.567496 0  0.541193 0.5214800000000001 0  0.439761 0.65557 0  0.5163 0.533672 0  0.414775 0.64562 0  0.40073 0.576135 0  0.430362 0.5880339999999999 0  0.385432 0.351492 0  0.400298 0.335397 0  0.398325 0.348194 0  0.528702 0.314885 0  0.540814 0.322334 0  0.534477 0.322953 0  0.619095 0.743583 0  0.885162 0.737972 0  0.08076 0.668849 0  0.90734 0.36634 0  0.09468699999999999 0.868937 0  0.759838 0.912152 0  0.901518 0.540898 0  0.747285 0.607479 0  0.229182 0.071641 0  0.06915399999999999 0.450091 0  0.244775 0.203309 0  0.076534 0.331755 0  0.897847 0.167826 0  0.578909 0.911415 0  0.07713299999999999 0.146341 0  0.477215 0.203448 0  0.922631 0.869341 0  0.517415 0.074785 0  0.297026 0.827793 0  0.7832710000000001 0.246505 0  0.74519 0.061079 0  0.36033 0.069068 0  0.210313 0.475228 0  0.859426 0.928758 0  0.5745479999999999 0.609182 0  0.243069 0.383398 0  0.283099 0.934598 0  0.417416 0.843141 0  0.643942 0.553164 0  0.112687 0.079336 0  0.281357 0.658386 0  0.765043 0.436177 0  0.611361 0.198486 0  0.234496 0.58911 0  0.206479 0.702638 0  0.679608 0.155818 0  0.62682 0.259978 0  0.690538 0.264164 0  0.448938 0.956308 0  0.808154 0.328403 0  0.379583 0.91913 0  0.308083 0.297769 0  0.312358 0.730249 0  0.563101 0.278576 0  0.435597 0.746198 0  0.385475 0.225229 0  0.572248 0.518034 0  0.357864 0.35422 0  0.497647 0.641694 0  0.458101 0.655768 0  0.360474 0.310727 0  0.467038 0.620139 0  0.47798 0.659909 0  0.41102 0.628072 0  0.48324 0.609015 0  0.427544 0.617941 0  0.388633 0.328253 0  0.405336 0.599404 0  0.408351 0.565178 0  0.42395 0.600985 0  0.431562 0.576523 0  0.424905 0.6551979999999999 0  0.398064 0.58782 0  0.427739 0.557934 0  0.5192909999999999 0.303443 0  0.53142 0.320293 0  0.5449000000000001 0.323642 0  0.537166 0.323513 0  0.153974 0.920841 0  0.9181859999999999 0.67343 0  0.759946 0.820588 0  0.5375259999999999 0.783091 0  0.816532 0.545843 0  0.813991 0.178083 0  0.836774 0.702023 0  0.149815 0.318856 0  0.662287 0.923338 0  0.680146 0.791192 0  0.708961 0.663172 0  0.9372779999999999 0.287318 0  0.574622 0.6881660000000001 0  0.5894740000000001 0.076262 0  0.502822 0.926683 0  0.222269 0.811068 0  0.380457 0.164786 0  0.15321 0.684154 0  0.458063 0.051413 0  0.161702 0.056026 0  0.199351 0.198818 0  0.298946 0.09553200000000001 0  0.902465 0.795949 0  0.121139 0.791477 0  0.906269 0.112287 0  0.056109 0.822332 0  0.512172 0.13237 0  0.940964 0.741805 0  0.888887 0.408777 0  0.354543 0.825964 0  0.808736 0.068638 0  0.068507 0.394071 0  0.719105 0.563843 0  0.247287 0.149664 0  0.293062 0.237128 0  0.240524 0.434997 0  0.141255 0.623289 0  0.945202 0.160621 0  0.502914 0.247629 0  0.144669 0.480811 0  0.665025 0.060817 0  0.728047 0.224344 0  0.861995 0.313312 0  0.200068 0.534235 0  0.253262 0.965623 0  0.893804 0.49307 0  0.604391 0.572456 0  0.947088 0.345347 0  0.439372 0.227307 0  0.629847 0.159823 0  0.273405 0.880181 0  0.302744 0.776823 0  0.781502 0.295365 0  0.275342 0.349602 0  0.7283849999999999 0.472798 0  0.229136 0.246478 0  0.807794 0.480346 0  0.709476 0.112786 0  0.275506 0.694991 0  0.771674 0.394419 0  0.449715 0.861802 0  0.419159 0.799696 0  0.674851 0.503139 0  0.280443 0.61016 0  0.572443 0.192538 0  0.393113 0.87525 0  0.405555 0.948428 0  0.330942 0.934103 0  0.540509 0.597101 0  0.312763 0.6689310000000001 0  0.254368 0.540179 0  0.595265 0.25915 0  0.606679 0.234099 0  0.657131 0.279138 0  0.722458 0.279478 0  0.333 0.308056 0  0.351529 0.246142 0  0.455714 0.7257940000000001 0  0.585239 0.295143 0  0.340062 0.72492 0  0.545593 0.293773 0  0.555449 0.545426 0  0.414311 0.737314 0  0.590854 0.502323 0  0.350507 0.368444 0  0.484423 0.625665 0  0.483899 0.674542 0  0.378137 0.317274 0  0.446416 0.646404 0  0.373532 0.347654 0  0.446876 0.619769 0  0.466106 0.666068 0  0.437545 0.609254 0  0.434988 0.565726 0  0.41462 0.656829 0  0.418803 0.556961 0  0.398425 0.327446 0  0.517803 0.310421 0  0.549516 0.322918 0  0.57701 0.842889 0  0.8291269999999999 0.773906 0  0.643235 0.684732 0  0.134281 0.207734 0  0.865997 0.055966 0  0.680959 0.723345 0  0.165229 0.8415550000000001 0  0.54558 0.959672 0  0.783726 0.656439 0  0.913315 0.595533 0  0.699439 0.860667 0  0.785839 0.125076 0  0.551673 0.037713 0  0.9200970000000001 0.223214 0  0.206406 0.299726 0  0.087064 0.596401 0  0.935644 0.394252 0  0.964557 0.252582 0  0.230124 0.928346 0  0.120579 0.271764 0  0.8572149999999999 0.524082 0  0.7670979999999999 0.5551469999999999 0  0.936094 0.507131 0  0.804064 0.59585 0  0.700565 0.608273 0  0.429773 0.174231 0  0.117746 0.727333 0  0.5389620000000001 0.730231 0  0.862761 0.359173 0  0.821444 0.284046 0  0.193552 0.35818 0  0.234923 0.505555 0  0.193209 0.421217 0  0.220144 0.755896 0  0.594015 0.131642 0  0.283813 0.195855 0  0.517519 0.213961 0  0.553509 0.639116 0  0.280391 0.378018 0  0.852183 0.436817 0  0.746983 0.197173 0  0.821806 0.221318 0  0.449853 0.828453 0  0.883758 0.453926 0  0.183484 0.589542 0  0.348384 0.129314 0  0.255254 0.838525 0  0.504849 0.798516 0  0.320344 0.863432 0  0.611669 0.525425 0  0.265864 0.804962 0  0.72056 0.521442 0  0.613372 0.6101220000000001 0  0.481262 0.881068 0  0.655778 0.191988 0  0.701921 0.196918 0  0.5658260000000001 0.5731810000000001 0  0.46914 0.240927 0  0.343219 0.173284 0  0.888786 0.278502 0  0.244113 0.6750930000000001 0  0.739546 0.417914 0  0.784023 0.355942 0  0.326805 0.265549 0  0.248616 0.6
[...]
<PointData  Vectors="f_21"> 
<DataArray  type="Float64"  Name="f_21"  NumberOfComponents="3" format="ascii">1.3894129961074935e+00 2.9185379388348370e-01 0.0000000000000000e+00  1.3346951732456998e+00 3.3066346747730585e-01 0.0000000000000000e+00  1.1671617312171765e+00 3.9251504008066851e-01 0.0000000000000000e+00  1.0195061021917877e+00 4.1541524181560219e-01 0.0000000000000000e+00  8.8003546530033949e-01 4.1539688884853149e-01 0.0000000000000000e+00  6.4427648424258621e-01 3.9893388812708303e-01 0.0000000000000000e+00  5.0499787160418730e-01 3.6007040973339732e-01 0.0000000000000000e+00  3.4573806964437820e-01 4.5927183526000864e-01 0.0000000000000000e+00  2.5957163362396263e-01 5.4101249085000436e-01 0.0000000000000000e+00  2.2617859075863808e-01 5.6062295224643355e-01 0.0000000000000000e+00  1.7321546519397668e-01 5.5077619988978266e-01 0.0000000000000000e+00  1.4404168267522477e-01 5.2076256368108720e-01 0.0000000000000000e+00  1.0752192175692346e-01 4.2654804577814032e-01 0.0000000000000000e+00  5.5710502185053551e-02 2.3962038164466137e-01 0.0000000000000000e+00  6.2649422132724552e-03 9.9940597108127013e-02 0.0000000000000000e+00  -2.0710176589177155e-02 -7.7986165561229762e-03 0.0000000000000000e+00  -2.4384179010911014e-02 -1.0874276319231146e-01 0.0000000000000000e+00  -5.3095972985872696e-03 -2.2000851675646046e-01 0.0000000000000000e+00  3.2675058226763767e-02 -3.1709181587737456e-01 0.0000000000000000e+00  9.4001385531651119e-02 -4.1658812428790937e-01 0.0000000000000000e+00  2.0347592386408334e-01 -5.3431906821788833e-01 0.0000000000000000e+00  2.9403437365926588e-01 -5.8006361595509315e-01 0.0000000000000000e+00  3.8281333339805007e-01 -5.6530667206634411e-01 0.0000000000000000e+00  6.4606654085257798e-01 -6.0930235680917200e-01 0.0000000000000000e+00  8.5614650692652516e-01 -6.6601071910470111e-01 0.0000000000000000e+00  1.0306340304005182e+00 -6.7467119504603712e-01 0.0000000000000000e+00  1.2960875027965317e+00 -6.6368187567036840e-01 0.0000000000000000e+00  1.4318908892627715e+00 -6.0465836037262410e-01 0.0000000000000000e+00  1.4929559640633869e+00 -5.3612295196061144e-01 0.0000000000000000e+00  1.5232661302496300e+00 -4.8406134686448732e-01 0.0000000000000000e+00  1.6156630040011797e+00 -4.8409399342700649e-01 0.0000000000000000e+00  1.7682125771773265e+00 -5.2250994327636913e-01 0.0000000000000000e+00  1.8493258632535630e+00 -5.7099810478312163e-01 0.0000000000000000e+00  1.8817958063503730e+00 -6.5669169847760200e-01 0.0000000000000000e+00  1.8795317404013097e+00 -7.3914071754655175e-01 0.0000000000000000e+00  1.9019136646899486e+00 -8.1943383917121271e-01 0.0000000000000000e+00  1.9494382355798630e+00 -8.5107134244694571e-01 0.0000000000000000e+00  2.0651844572631748e+00 -8.9396788656470505e-01 0.0000000000000000e+00  2.2514443346170241e+00 -9.4253755767756497e-01 0.0000000000000000e+00  2.3276800049933910e+00 -9.3675410978726226e-01 0.0000000000000000e+00  2.4321426781759903e+00 -8.9528003954959323e-01 0.0000000000000000e+00  2.4809199776487389e+00 -8.2485413581976375e-01 0.0000000000000000e+00  2.4880022930568848e+00 -7.5435895162240618e-01 0.0000000000000000e+00  2.4536122396180504e+00 -6.8376459407406542e-01 0.0000000000000000e+00  2.3841268054401228e+00 -6.4108420833724067e-01 0.0000000000000000e+00  2.2993826323069686e+00 -6.6327382352721997e-01 0.0000000000000000e+00  2.2122509932180474e+00 -6.8241481608078247e-01 0.0000000000000000e+00  2.1430399225338448e+00 -6.3824054983370138e-01 0.0000000000000000e+00  2.1552670798738971e+00 -5.5928647426980438e-01 0.0000000000000000e+00  2.1928729648205949e+00 -5.1445905554191307e-01 0.0000000000000000e+00  2.2480400470556545e+00 -4.7693535145178506e-01 0.0000000000000000e+00  2.3131726070164853e+00 -4.5669851879628748e-01 0.0000000000000000e+00  2.3781885470843713e+00 -4.2374050443645966e-01 0.0000000000000000e+00  2.4135387318560837e+00 -3.7218306767149933e-01 0.0000000000000000e+00  2.4481253596882353e+00 -2.8443181340920692e-01 0.0000000000000000e+00  2.4660276239975625e+00 -1.8702102967349973e-01 0.0000000000000000e+00  2.4612391767745794e+00 -1.0300630521215286e-01 0.0000000000000000e+00  2.4516481983848557e+00 -1.7879792000364853e-02 0.0000000000000000e+00  2.4456001320478253e+00 4.1146986143482688e-02 0.0000000000000000e+00  2.4331736174877157e+00 8.9772052773391134e-02 0.0000000000000000e+00  2.4116981405161280e+00 1.3546893121005760e-01 0.0000000000000000e+00  2.3779827902562292e+00 1.6901947469060932e-01 0.0000000000000000e+00  2.3282014742934680e+00 1.9738228840733205e-01 0.0000000000000000e+00  2.2778565678152511e+00 2.0805110137251892e-01 0.0000000000000000e+00  2.2601373200179244e+00 2.0365711043733031e-01 0.0000000000000000e+00  2.2225858993795038e+00 2.0442925522942912e-01 0.0000000000000000e+00  2.1716012757787735e+00 2.1066619831602820e-01 0.0000000000000000e+00  2.0420245285967926e+00 2.2055912996042851e-01 0.0000000000000000e+00  1.9310314426301840e+00 2.2837678815092444e-01 0.0000000000000000e+00  1.8182037635186516e+00 2.1855386749754380e-01 0.0000000000000000e+00  1.7567390716188560e+00 2.1374835125499805e-01 0.0000000000000000e+00  1.6930166165613310e+00 2.2276870776024105e-01 0.0000000000000000e+00  1.6123465276396078e+00 2.3681374869236124e-01 0.0000000000000000e+00  1.4983320420268094e+00 2.5304383856273432e-01 0.0000000000000000e+00  1.4326656206477375e+00 2.5818840416883110e-01 0.0000000000000000e+00  1.4117257538050241e+00 2.6681735607065110e-01 0.0000000000000000e+00  1.3918560288555710e+00 2.8683577762082468e-01 0.0000000000000000e+00  1.7719896188397619e+00 2.3112634729586742e-01 0.0000000000000000e+00  1.5918521340447171e+00 -1.2303844562750743e-01 0.0000000000000000e+00  0.0000000000000000e+00 0.0000000000000000e+00 0.0000000000000000e+00  0.0000000000000000e+00 0.0000000000000000e+00 0.0000000000000000e+00  1.3857031418283188e+00 2.9606410669662764e-01 0.0000000000000000e+00  1.3794136325086430e+00 3.0163516087885023e-01 0.0000000000000000e+00  1.3698204178656721e+00 3.0890843193213119e-01 0.0000000000000000e+00  1.3557273857327801e+00 3.1846908033158483e-01 0.0000000000000000e+00  1.3130207607937667e+00 3.4163343850964428e-01 0.0000000000000000e+00  1.2817745703314363e+00 3.5573925972390080e-01 0.0000000000000000e+00  1.2366264251482864e+00 3.7259271558109569e-01 0.0000000000000000e+00  1.1027166977958389e+00 4.0580560828052903e-01 0.0000000000000000e+00  7.9270802902944426e-01 4.0871786457961823e-01 0.0000000000000000e+00  7.1948146377833055e-01 4.0393853002057728e-01 0.0000000000000000e+00  4.3877925838535742e-01 3.9679260890062679e-01 0.0000000000000000e+00  3.9008590202927490e-01 4.2515962430540805e-01 0.0000000000000000e+00  3.0847424345404917e-01 4.9201917740578910e-01 0.0000000000000000e+00  2.8086885540539785e-01 5.1928270036320523e-01 0.0000000000000000e+00  2.0199353174903650e-01 5.5613895605700470e-01 0.0000000000000000e+00  1.3435034644136504e-01 4.9774112618883998e-01 0.0000000000000000e+00  1.2214055620681306e-01 4.6724430302768238e-01 0.0000000000000000e+00  8.9906998043332895e-02 3.7994822759943170e-01 0.0000000000000000e+00  7.1701047520232181e-02 3.1938646293090228e-01 0.0000000000000000e+00  3.1079107342045127e-02 1.7836143532407234e-01 0.0000000000000000e+00  -1.6630986463745497e-02 -1.6916089897054185e-01 0.0000000000000000e+00  1.5039027148449130e-01 -4.8344093323019482e-01 0.0000000000000000e+00  4.6442006796416602e-01 -5.8988899311419807e-01 0.0000000000000000e+00  5.4882367417766653e-01 -6.0723242990913073e-01 0.0000000000000000e+00  1.1822853489601852e+00 -6.8244338976444885e-01 0.0000000000000000e+00  1.3634842086586718e+00 -6.3698129772242051e-01 0.0000000000000000e+00  1.5521333311168690e+00 -4.6575611222326119e-01 0.0000000000000000e+00  1.8654286867447183e+00 -6.0694318978650830e-01 0.0000000000000000e+00  1.8919276610161562e+00 -7.8429019348360707e-01 0.0000000000000000e+00  1.9988503079426501e+00 -8.6889259955018627e-01 0.0000000000000000e+00  2.1414435062353236e+00 -9.1452015636408956e-01 0.0000000000000000e+00  2.2030476934414098e+00 -9.3065343259925537e-01 0.0000000000000000e+00  2.3730976239357751e+00 -9.1887315433901995e-01 0.0000000000000000e+00  2.3474868910567435e+00 -6.5048546817790198e-01 0.0000000000000000e+00  2.1480957371229263e+00 -6.0388957398384424e-01 0.0000000000000000e+00  2.3497834747780786e+00 -4.3781884997565557e-01 0.0000000000000000e+00  2.4588065949149738e+00 -2.2901361549040325e-01 0.0000000000000000e+00  2.4576950914266282e+00 -5.5347189211278340e-02 0.0000000000000000e+00  2.4249426958961764e+00 1.1082025817432874e-01 0.0000000000000000e+00  2.3510371374576144e+00 1.8690436518607892e-01 0.0000000000000000e+00  2.2996049306043691e+00 2.0585283874707749e-01 0.0000000000000000e+00  2.2443423836435330e+00 2.0197660976132312e-01 0.0000000000000000e+00  2.1218201278857478e+00 2.2441849707337699e-01 0.0000000000000000e+00  1.8742693192355624e+00 2.2140156959665599e-01 0.0000000000000000e+00  1.5514257981896729e+00 2.4489972642616675e-01 0.0000000000000000e+00  1.4558352009815065e+00 2.5565385637680660e-01 0.0000000000000000e+00  1.4186145896571118e+00 2.6200160392628741e-01 0.0000000000000000e+00  1.4056829732155873e+00 2.7288660741373905e-01 0.0000000000000000e+00  1.3999113617085834e+00 2.7850350090727249e-01 0.0000000000000000e+00  1.3953458592299031e+00 2.8309277457551718e-01 0.0000000000000000e+00  1.9480742911434599e+00 2.7332954921469971e-01 0.0000000000000000e+00  2.1384252133149038e+00 3.0701431367819837e-01 0.0000000000000000e+00  2.3179643586412748e+00 2.9784818504954386e-01 0.0000000000000000e+00  2.4577166863456079e+00 2.3260042949483756e-01 0.0000000000000000e+00  2.5035534457717565e+00 1.0636177376756083e-01 0.0000000000000000e+00  2.4223286390875876e+00 -3.4928326277890324e-02 0.0000000000000000e+00  2.2265489821007982e+00 -1.2984962347967238e-01 0.0000000000000000e+00  2.0026409794028339e+00 -1.5350096236326063e-01 0.0000000000000000e+00  1.7955149387806415e+00 -1.4679569675000706e-01 0.0000000000000000e+00  1.4922732648374204e+00 8.1443685875013702e-02 0.0000000000000000e+00  1.3833243749457163e+00 2.6786145934240480e-01 0.0000000000000000e+00  1.2612047389290411e+00 4.0825437324815605e-01 0.0000000000000000e+00  1.1235927253511315e+00 5.0906328612738327e-01 0.0000000000000000e+00  9.8733149306592438e-01 5.8151614956196174e-01 0.0000000000000000e+00  8.7072623861713472e-01 5.8243590354111208e-01 0.0000000000000000e+00  7.3223640530822731e-01 4.7696858443428941e-01 0.0000000000000000e+00  5.3848567901657696e-01 3.1623323300147621e-01 0.0000000000000000e+00  2.9656046331440822e-01 1.6983386342982401e-01 0.0000000000000000e+00  3.4259465961633845e-01 -2.0820048892994070e-01 0.0000000000000000e+00  6.1010929667844072e-01 -3.9934420333219728e-01 0.0000000000000000e+00  7.9899123435799713e-01 -6.0895350276251037e-01 0.0000000000000000e+00  8.9295672543327476e-01 -7.0010245077871103e-01 0.0000000000000000e+00  9.8199580658952024e-01 -6.0133260359330376e-01 0.0000000000000000e+00  1.1270526912757453e+00 -4.0305609570362089e-01 0.0000000000000000e+00  1.3175594721387165e+00 -2.0729622414916496e-01 0.0000000000000000e+00  1.5128221913188398e+00 -6.1770787303745842e-02 0.0000000000000000e+00  1.6649053452314702e+00 6.9056060275790601e-02 0.0000000000000000e+00  0.0000000000000000e+00 0.0000000000000000e+00 0.0000000000000000e+00  0.0000000000000000e+00 0.0000000000000000e+00 0.0000000000000000e+00  0.0000000000000000e+00 0.0000000000000000e+00 0.0000000000000000e+00  0.0000000000000000e+00 0.0000000000000000e+00 0.0000000000000000e+00  0.0000000000000000e+00 0.0000000000000000e+00 0.0000000000000000e+00  0.0000000000000000e+00 0.0000000000000000e+00 0.0000000000000000e+00  0.0000000000000000e+00 0.0000000000000000e+00 0.0000000000000000e+00  0.0000000000000000e+00 0.0000000000000000e+00 0.0000000000000000e+00  0.0000000000000000e+00 0.0000000000000000e+00 0.0000000000000000e+00  2.4290875985847369e+00 -3.3386440278155360e-01 0.0000000000000000e+00  1.9802651100756152e+00 4.6954737793888313e-02 0.0000000000000000e+00  2.0744396741249682e-01 -1.0766856213711568e-01 0.0000000000000000e+00  2.0522679359848470e-01 5.7486611917248305e-02 0.0000000000000000e+00  1.5641387917772840e+00 2.8434903209551393e-01 0.0000000000000000e+00  1.1864348491346650e+00 4.4297327452526686e-01 0.0000000000000000e+00  2.4335013344283132e+00 1.2094788444644651e-01 0.0000000000000000e+00  1.1862827264377693e+00 -5.1708249587379063e-01 0.0000000000000000e+00  -1.3219388896258221e-02 -3.4814557406930929e-02 0.0000000000000000e+00  6.1805934658017225e-01 3.7148343321103039e-01 0.0000000000000000e+00  8.1708038711385844e-01 -6.2317852685659336e-01 0.0000000000000000e+00  1.2657036326803256e-01 5.9681545916900135e-02 0.0000000000000000e+00  1.7680600811152755e-01 -9.9172599884966545e-02 0.0000000000000000e+00  1.8076161211083306e+00 1.4992159214814130e-01 0.0000000000000000e+00  1.6374035634343942e+00 -5.7410282669232487e-03 0.0000000000000000e+00  2.2366969778629842e-01 3.0983202496840545e-01 0.0000000000000000e+00  2.0110859270176502e+00 -5.4551654959490425e-01 0.0000000000000000e+00  2.0181744354728530e+00 -7.1530886102917302e-01 0.0000000000000000e+00  2.2955880733329863e+00 -8.0270798649911401e-01 0.0000000000000000e+00  2.3153973449675234e+00 -3.4014247401243403e-01 0.0000000000000000e+00  2.0664517629084161e-01 4.8694214384958595e-01 0.0000000000000000e+00  1.3800411296982134e+00 2.9134580097367657e-01 0.0000000000000000e+00  2.4261377993983431e-02 -2.8832383480130834e-02 0.0000000000000000e+00  1.8432825506167250e+00 7.2752684731780329e-02 0.0000000000000000e+00  1.4787815378790337e+00 -2.3296249103590136e-01 0.0000000000000000e+00  2.3021370849174940e+00 1.5478480966291130e-01 0.0000000000000000e+00  2.1216301883235236e+00 -3.8164013586892462e-02 0.0000000000000000e+00  1.9546218463285023e+00 7.1786779545183518e-02 0.0000000000000000e+00  3.1777963614460542e-01 1.5858595808621542e-01 0.0000000000000000e+00  4.8063786401645120e-01 -3.2198593134757802e-01 0.0000000000000000e+00  9.5175461367587366e-01 5.3386972108284503e-01 0.0000000000000000e+00  1.6280677085297088e+00 1.4802540585270432e-01 0.0000000000000000e+00  7.3498504683214089e-02 -1.0145195125820353e-01 0.0000000000000000e+00  1.3277722408194790e+00 4.0224880101906635e-01 0.0000000000000000e+00  1.5437445990849084e+00 3.0751141604511567e-01 0.0000000000000000e+00  2.8151346167736857e-01 1.1766272572528573e-01 0.0000000000000000e+00  3.9257066150272191e-01 -2.7480620297201613e-01 0.0000000000000000e+00  7.4150442940470684e-02 -1.2099875718919103e-02 0.0000000000000000e+00  7.4084767574706584e-02 4.6790216313241038e-04 0.0000000000000000e+00  9.8374007946813846e-01 -6.4070216294953530e-01 0.0000000000000000e+00  2.4497401875294220e+00 7.5911116006686374e-02 0.0000000000000000e+00  1.3195516831832717e+00 3.4752989290614067e-01 0.0000000000000000e+00  2.3370887092132424e+00 1.0162004597886173e-01 0.0000000000000000e+00  2.3932410510746367e+00 1.2755868197639991e-01 0.0000000000000000e+00  1.2429994395498398e+00 -5.2071694592730067e-01 0.0000000000000000e+00  -8.4101684886298718e-03 -1.2394695125080143e-02 0.0000000000000000e+00  6.5667832390032155e-01 3.8394386337796838e-01 0.0000000000000000e+00  8.4733275284270526e-01 -6.6757456946978322e-01 0.0000000000000000e+00  1.2916628842403663e-01 2.5313218638044727e-01 0.0000000000000000e+00  2.2837042055723007e+00 -3.9153631185696025e-01 0.0000000000000000e+00  2.3159484911178718e-01 4.0659347744013935e-01 0.0000000000000000e+00  2.0994355103092062e+00 -4.4057207582927016e-01 0.0000000000000000e+00  1.8972641546110296e+00 -4.4304175267411522e-01 0.0000000000000000e+00  2.1441059602137247e+00 -8.1642205026158288e-01 0.0000000000000000e+00  2.0248972055834598e+00 -6.2298949869664844e-01 0.0000000000000000e+00  2.3769510975355272e+00 -7.6281517941520471e-01 0.0000000000000000e+00  2.3786232107239145e+00 -3.1711394327817538e-01 0.0000000000000000e+00  1.9405431032265548e+00 -6.8791147555929355e-01 0.0000000000000000e+00  2.3476554633427233e+00 -3.9179152997766531e-01 0.0000000000000000e+00  1.9842695030580422e+00 -8.0154824262804880e-01 0.0000000000000000e+00  2.3309170562231016e+00 -8.7702025029285358e-01 0.0000000000000000e+00  2.2664398612591632e+00 -7.2523287993124252e-01 0.0000000000000000e+00  1.6748924799641432e-01 4.6536355828370590e-01 0.0000000000000000e+00  2.2587284242479724e-01 5.2224343270496010e-01 0.0000000000000000e+00  1.7928571409311500e-01 5.1454564397110047e-01 0.0000000000000000e+00  1.3594119625419834e+00 3.0375558988880313e-01 0.0000000000000000e+00  1.3879233581144370e+00 2.8585376157769599e-01 0.0000000000000000e+00  1.3833788114069010e+00 2.9308865846369053e-01 0.0000000000000000e+00  1.7322091523897449e+00 -1.6891564103264101e-01 0.0000000000000000e+00  2.1424674289271350e+00 1.6582194480273857e-01 0.0000000000000000e+00  4.4359972536845350e-02 -5.1183503384565230e-03 0.0000000000000000e+00  2.3102784826898484e+00 3.3180428616374907e-02 0.0000000000000000e+00  1.9189954994088307e-01 -9.5460093420634370e-02 0.0000000000000000e+00  1.5864305734406765e+00 -5.9093534043894516e-02 0.0000000000000000e+00  2.4442861183164033e+00 1.4536396300610482e-01 0.0000000000000000e+00  2.2502696933282387e+00 9.7745423471045173e-02 0.0000000000000000e+00  5.1125657269588243e-01 3.1075826777664489e-01 0.0000000000000000e+00  -3.1708721845099107e-03 -2.1890319335938352e-02 0.0000000000000000e+00  4.1892572764125463e-01 2.0440642878393100e-01 0.0000000000000000e+00  4.0108912862558015e-02 -2.0206733069131060e-02 0.0000000000000000e+00  1.8337146580750676e+00 3.5879928911153471e-02 0.0000000000000000e+00  1.2548571210718305e+00 -3.9347862654309407e-01 0.0000000000000000e+00  1.2762235859543983e-01 4.1191395691648300e-02 0.0000000000000000e+00  1.0300045949021779e+00 4.6068285921900776e-01 0.0000000000000000e+00  1.9216990053636500e+00 1.6326330587356627e-01 0.0000000000000000e+00  1.0486798210634767e+00 5.3199872351144029e-01 0.0000000000000000e+00  6.6215609650388274e-01 -4.6410501155731976e-01 0.0000000000000000e+00  1.8286396865196615e+00 1.7653086406936117e-01 0.0000000000000000e+00  1.4108130482096970e+00 3.2193311064436575e-01 0.0000000000000000e+00  7.7428015546734419e-01 5.1325692369584719e-01 0.0000000000000000e+00  -3.0187878738891807e-02 -3.9405713404131529e-02 0.0000000000000000e+00  1.7219351958610138e+00 5.2150583155077375e-02 0.0000000000000000e+00  2.1294480756811747e+00 -2.1553946271917823e-01 0.0000000000000000e+00  6.7751809210731442e-02 3.6813858768276711e-02 0.0000000000000000e+00  6.9282716695009361e-01 -5.3287940064190487e-01 0.0000000000000000e+00  9.9095130696153122e-01 -6.3059180811417370e-01 0.0000000000000000e+00  2.2963127632058447e+00 -3.5274193669842746e-02 0.0000000000000000e+00  2.4305553275683431e-01 1.2421440555802273e-01 0.0000000000000000e+00  1.3723082849643137e-01 -2.5397307801929664e-01 0.0000000000000000e+00  2.4032672033338534e+00 1.3912837346258308e-01 0.0000000000000000e+00  1.3740646958233329e+00 3.6143227588627913e-01 0.0000000000000000e+00  2.3325759737063442e-03 -1.2032089690504844e-01 0.0000000000000000e+00  1.8849330543808113e-01 -1.3657756053741643e-01 0.0000000000000000e+00  1.4561793347095253e+00 3.4310863064302111e-01 0.0000000000000000e+00  1.4994883377989898e+00 2.9601578959008890e-01 0.0000000000000000e+00  1.6649991987504023e+00 2.6640644710430866e-01 0.0000000000000000e+00  9.6764407521723994e-01 -6.4902315435925328e-01 0.0000000000000000e+00  2.1287700868188235e+00 9.6378603411601760e-02 0.0000000000000000e+00  8.7365461718937298e-01 -6.6139505150474365e-01 0.0000000000000000e+00  3.2950120555567669e-01 2.1417324305506630e-01 0.0000000000000000e+00  3.9669679589229123e-01 -3.7973255580823240e-01 0.0000000000000000e+00  1.3643184224824183e+00 3.0363593668674493e-01 0.0000000000000000e+00  1.3369784657907426e+00 -5.2118774694724468e-01 0.0000000000000000e+00  7.7330012012325344e-01 4.5276516255553356e-01 0.0000000000000000e+00  2.3824933039106106e+00 -2.2478620245649553e-01 0.0000000000000000e+00  1.5832576897661