<?xml version="1.0"?>
<VTKFile type="UnstructuredGrid"  version="0.1"  >
<UnstructuredGrid>
<Piece  NumberOfPoints="2868" NumberOfCells="5400">
<Points>
<DataArray  type="Float64"  NumberOfComponents="3"  format="ascii">0.534923 0.326073 0  0.510642 0.314196 0  0.466125 0.293082 0  0.436448 0.281205 0  0.409468 0.275927 0  0.368998 0.270648 0  0.35281 0.275927 0  0.381139 0.302319 0  0.405421 0.326073 0  0.410817 0.33531 0  0.408119 0.349826 0  0.400025 0.357744 0  0.375743 0.368301 0  0.329878 0.392055 0  0.297502 0.432963 0  0.282663 0.476511 0  0.285361 0.524018 0  0.298851 0.572845 0  0.317737 0.6045160000000001 0  0.337972 0.6361869999999999 0  0.360904 0.674457 0  0.368998 0.69953 0  0.359555 0.7219640000000001 0  0.360904 0.757594 0  0.370347 0.766831 0  0.381139 0.762872 0  0.390582 0.741758 0  0.404072 0.720644 0  0.424307 0.707448 0  0.447239 0.702169 0  0.480964 0.704808 0  0.479615 0.6889729999999999 0  0.468823 0.675776 0  0.447239 0.6691780000000001 0  0.428354 0.6691780000000001 0  0.410817 0.6639 0  0.404072 0.653343 0  0.395978 0.628269 0  0.387884 0.59132 0  0.389233 0.576804 0  0.397327 0.557009 0  0.410817 0.547772 0  0.424307 0.546452 0  0.437797 0.55305 0  0.44589 0.5662469999999999 0  0.441843 0.582082 0  0.439145 0.5979179999999999 0  0.449937 0.609795 0  0.468823 0.603196 0  0.479615 0.59 0  0.489058 0.570205 0  0.494454 0.546452 0  0.505246 0.522699 0  0.522783 0.509502 0  0.55246 0.494986 0  0.586185 0.484429 0  0.615863 0.48047 0  0.64554 0.473872 0  0.6671240000000001 0.461995 0  0.683312 0.451438 0  0.696802 0.435603 0  0.703547 0.417128 0  0.7116400000000001 0.393374 0  0.7183850000000001 0.37226 0  0.7251300000000001 0.364342 0  0.739969 0.353785 0  0.7453650000000001 0.344548 0  0.7453650000000001 0.327393 0  0.737271 0.318155 0  0.7183850000000001 0.316835 0  0.7008490000000001 0.319475 0  0.677916 0.318155 0  0.650936 0.316835 0  0.610467 0.318155 0  0.57944 0.324753 0  0.559205 0.328712 0  0.5389699999999999 0.326073 0  1 1 0  1 0 0  0 0 0  0 1 0  0.532238 0.32476 0  0.528748 0.323052 0  0.52421 0.320833 0  0.518311 0.317947 0  0.503447 0.310783 0  0.494093 0.306347 0  0.481933 0.30058 0  0.452151 0.28749 0  0.392327 0.273691 0  0.379141 0.271971 0  0.360474 0.283066 0  0.369797 0.291752 0  0.391424 0.31238 0  0.399335 0.32012 0  0.40958 0.341964 0  0.393939 0.36039 0  0.386028 0.36383 0  0.364248 0.374254 0  0.349304 0.381994 0  0.315801 0.409841 0  0.292986 0.551616 0  0.350934 0.657818 0  0.360127 0.737055 0  0.360566 0.748664 0  0.385245 0.753692 0  0.396447 0.732578 0  0.466301 0.703661 0  0.459439 0.672908 0  0.418442 0.666195 0  0.400553 0.642441 0  0.39255 0.612619 0  0.389913 0.60058 0  0.392752 0.568197 0  0.444131 0.573132 0  0.458149 0.606926 0  0.5005540000000001 0.533026 0  0.571522 0.489019 0  0.632637 0.476741 0  0.689177 0.444553 0  0.708121 0.403702 0  0.715453 0.38144 0  0.732406 0.359166 0  0.7453650000000001 0.337089 0  0.72906 0.317581 0  0.629879 0.317522 0  0.59293 0.321884 0  0.568003 0.326991 0  0.55202 0.327775 0  0.546493 0.327054 0  0.542241 0.326499 0  1 0.9 0  1 0.8 0  1 0.7 0  1 0.6 0  1 0.5 0  1 0.4 0  1 0.3 0  1 0.2 0  1 0.1 0  0.9 0 0  0.8 0 0  0.7 0 0  0.6 0 0  0.5 0 0  0.4 0 0  0.3 0 0  0.2 0 0  0.1 0 0  0.1 1 0  0.2 1 0  0.3 1 0  0.4 1 0  0.5 1 0  0.6 1 0  0.7 1 0  0.8 1 0  0.9 1 0  0 0.1 0  0 0.2 0  0 0.3 0  0 0.4 0  0 0.5 0  0 0.6 0  0 0.7 0  0 0.8 0  0 0.9 0  0.535686 0.5031910000000001 0  0.753987 0.733359 0  0.167145 0.741436 0  0.173378 0.257204 0  0.733497 0.159862 0  0.554096 0.15788 0  0.849187 0.479053 0  0.488793 0.838452 0  0.138507 0.5592 0  0.30686 0.154944 0  0.348904 0.890523 0  0.058006 0.065099 0  0.06984899999999999 0.937917 0  0.93633 0.939704 0  0.934625 0.053613 0  0.343397 0.333452 0  0.473272 0.639943 0  0.433266 0.638072 0  0.415174 0.58269 0  0.533435 0.545042 0  0.390848 0.340652 0  0.53655 0.320242 0  0.127966 0.393775 0  0.83861 0.850455 0  0.635242 0.8551299999999999 0  0.852158 0.633441 0  0.653427 0.626848 0  0.861226 0.24292 0  0.166128 0.12976 0  0.216875 0.8698709999999999 0  0.458305 0.11179 0  0.84446 0.101633 0  0.202024 0.642528 0  0.644825 0.115855 0  0.671342 0.218358 0  0.251354 0.286186 0  0.262388 0.75153 0  0.063044 0.751571 0  0.068189 0.242962 0  0.435781 0.9053949999999999 0  0.934144 0.451133 0  0.568393 0.237622 0  0.814984 0.395506 0  0.752951 0.517227 0  0.456254 0.780699 0  0.073352 0.531116 0  0.337731 0.206071 0  0.363213 0.960371 0  0.330742 0.363592 0  0.516613 0.55705 0  0.369057 0.332992 0  0.500926 0.617309 0  0.498004 0.665534 0  0.412142 0.61178 0  0.454233 0.6366039999999999 0  0.422782 0.567496 0  0.541193 0.5214800000000001 0  0.439761 0.65557 0  0.5163 0.533672 0  0.414775 0.64562 0  0.40073 0.576135 0  0.430362 0.5880339999999999 0  0.385432 0.351492 0  0.400298 0.335397 0  0.398325 0.348194 0  0.528702 0.314885 0  0.540814 0.322334 0  0.534477 0.322953 0  0.619095 0.743583 0  0.885162 0.737972 0  0.08076 0.668849 0  0.90734 0.36634 0  0.09468699999999999 0.868937 0  0.759838 0.912152 0  0.901518 0.540898 0  0.747285 0.607479 0  0.229182 0.071641 0  0.06915399999999999 0.450091 0  0.244775 0.203309 0  0.076534 0.331755 0  0.897847 0.167826 0  0.578909 0.911415 0  0.07713299999999999 0.146341 0  0.477215 0.203448 0  0.922631 0.869341 0  0.517415 0.074785 0  0.297026 0.827793 0  0.7832710000000001 0.246505 0  0.74519 0.061079 0  0.36033 0.069068 0  0.210313 0.475228 0  0.859426 0.928758 0  0.5745479999999999 0.609182 0  0.243069 0.383398 0  0.283099 0.934598 0  0.417416 0.843141 0  0.643942 0.553164 0  0.112687 0.079336 0  0.281357 0.658386 0  0.765043 0.436177 0  0.611361 0.198486 0  0.234496 0.58911 0  0.206479 0.702638 0  0.679608 0.155818 0  0.62682 0.259978 0  0.690538 0.264164 0  0.448938 0.956308 0  0.808154 0.328403 0  0.379583 0.91913 0  0.308083 0.297769 0  0.312358 0.730249 0  0.563101 0.278576 0  0.435597 0.746198 0  0.385475 0.225229 0  0.572248 0.518034 0  0.357864 0.35422 0  0.497647 0.641694 0  0.458101 0.655768 0  0.360474 0.310727 0  0.467038 0.620139 0  0.47798 0.659909 0  0.41102 0.628072 0  0.48324 0.609015 0  0.427544 0.617941 0  0.388633 0.328253 0  0.405336 0.599404 0  0.408351 0.565178 0  0.42395 0.600985 0  0.431562 0.576523 0  0.424905 0.6551979999999999 0  0.398064 0.58782 0  0.427739 0.557934 0  0.5192909999999999 0.303443 0  0.53142 0.320293 0  0.5449000000000001 0.323642 0  0.537166 0.323513 0  0.153974 0.920841 0  0.9181859999999999 0.67343 0  0.759946 0.820588 0  0.5375259999999999 0.783091 0  0.816532 0.545843 0  0.813991 0.178083 0  0.836774 0.702023 0  0.149815 0.318856 0  0.662287 0.923338 0  0.680146 0.791192 0  0.708961 0.663172 0  0.9372779999999999 0.287318 0  0.574622 0.6881660000000001 0  0.5894740000000001 0.076262 0  0.502822 0.926683 0  0.222269 0.811068 0  0.380457 0.164786 0  0.15321 0.684154 0  0.458063 0.051413 0  0.161702 0.056026 0  0.199351 0.198818 0  0.298946 0.09553200000000001 0  0.902465 0.795949 0  0.121139 0.791477 0  0.906269 0.112287 0  0.056109 0.822332 0  0.512172 0.13237 0  0.940964 0.741805 0  0.888887 0.408777 0  0.354543 0.825964 0  0.808736 0.068638 0  0.068507 0.394071 0  0.719105 0.563843 0  0.247287 0.149664 0  0.293062 0.237128 0  0.240524 0.434997 0  0.141255 0.623289 0  0.945202 0.160621 0  0.502914 0.247629 0  0.144669 0.480811 0  0.665025 0.060817 0  0.728047 0.224344 0  0.861995 0.313312 0  0.200068 0.534235 0  0.253262 0.965623 0  0.893804 0.49307 0  0.604391 0.572456 0  0.947088 0.345347 0  0.439372 0.227307 0  0.629847 0.159823 0  0.273405 0.880181 0  0.302744 0.776823 0  0.781502 0.295365 0  0.275342 0.349602 0  0.7283849999999999 0.472798 0  0.229136 0.246478 0  0.807794 0.480346 0  0.709476 0.112786 0  0.275506 0.694991 0  0.771674 0.394419 0  0.449715 0.861802 0  0.419159 0.799696 0  0.674851 0.503139 0  0.280443 0.61016 0  0.572443 0.192538 0  0.393113 0.87525 0  0.405555 0.948428 0  0.330942 0.934103 0  0.540509 0.597101 0  0.312763 0.6689310000000001 0  0.254368 0.540179 0  0.595265 0.25915 0  0.606679 0.234099 0  0.657131 0.279138 0  0.722458 0.279478 0  0.333 0.308056 0  0.351529 0.246142 0  0.455714 0.7257940000000001 0  0.585239 0.295143 0  0.340062 0.72492 0  0.545593 0.293773 0  0.555449 0.545426 0  0.414311 0.737314 0  0.590854 0.502323 0  0.350507 0.368444 0  0.484423 0.625665 0  0.483899 0.674542 0  0.378137 0.317274 0  0.446416 0.646404 0  0.373532 0.347654 0  0.446876 0.619769 0  0.466106 0.666068 0  0.437545 0.609254 0  0.434988 0.565726 0  0.41462 0.656829 0  0.418803 0.556961 0  0.398425 0.327446 0  0.517803 0.310421 0  0.549516 0.322918 0  0.57701 0.842889 0  0.8291269999999999 0.773906 0  0.643235 0.684732 0  0.134281 0.207734 0  0.865997 0.055966 0  0.680959 0.723345 0  0.165229 0.8415550000000001 0  0.54558 0.959672 0  0.783726 0.656439 0  0.913315 0.595533 0  0.699439 0.860667 0  0.785839 0.125076 0  0.551673 0.037713 0  0.9200970000000001 0.223214 0  0.206406 0.299726 0  0.087064 0.596401 0  0.935644 0.394252 0  0.964557 0.252582 0  0.230124 0.928346 0  0.120579 0.271764 0  0.8572149999999999 0.524082 0  0.7670979999999999 0.5551469999999999 0  0.936094 0.507131 0  0.804064 0.59585 0  0.700565 0.608273 0  0.429773 0.174231 0  0.117746 0.727333 0  0.5389620000000001 0.730231 0  0.862761 0.359173 0  0.821444 0.284046 0  0.193552 0.35818 0  0.234923 0.505555 0  0.193209 0.421217 0  0.220144 0.755896 0  0.594015 0.131642 0  0.283813 0.195855 0  0.517519 0.213961 0  0.553509 0.639116 0  0.280391 0.378018 0  0.852183 0.436817 0  0.746983 0.197173 0  0.821806 0.221318 0  0.449853 0.828453 0  0.883758 0.453926 0  0.183484 0.589542 0  0.348384 0.129314 0  0.255254 0.838525 0  0.504849 0.798516 0  0.320344 0.863432 0  0.611669 0.525425 0  0.265864 0.804962 0  0.72056 0.521442 0  0.613372 0.6101220000000001 0  0.481262 0.881068 0  0.655778 0.191988 0  0.701921 0.196918 0  0.5658260000000001 0.5731810000000001 0  0.46914 0.240927 0  0.343219 0.173284 0  0.888786 0.278502 0  0.244113 0.6750930000000001 0  0.739546 0.417914 0  0.784023 0.355942 0  0.326805 0.265549 0  0.248616 0.6
[...]
<PointData  Vectors="f_21"> 
<DataArray  type="Float64"  Name="f_21"  NumberOfComponents="3" format="ascii">3.3759519697623696e-06 -8.9662628341096352e-07 0.0000000000000000e+00  1.4215115307759654e-06 -1.8211805684616096e-07 0.0000000000000000e+00  2.2093331588946190e-07 -1.3811524220859547e-08 0.0000000000000000e+00  6.0417531142075627e-08 -5.0861102700648957e-09 0.0000000000000000e+00  1.6623842686251856e-08 -1.8121061219898476e-09 0.0000000000000000e+00  2.1049225155964509e-09 -3.1677236388053328e-10 0.0000000000000000e+00  4.8769489089084960e-10 -1.1393047436847696e-10 0.0000000000000000e+00  1.3605891121564801e-11 1.4852661335404662e-11 0.0000000000000000e+00  1.5491396223950596e-12 2.1112307597572804e-12 0.0000000000000000e+00  9.6397866180363684e-13 1.8910773838235830e-12 0.0000000000000000e+00  2.0648691528407852e-13 1.5563882463067397e-12 0.0000000000000000e+00  -1.3042288854438329e-13 1.1732996503545762e-12 0.0000000000000000e+00  -5.1431406118763866e-13 2.2677802944677531e-13 0.0000000000000000e+00  -7.4206249798348106e-14 -3.5965404166918698e-13 0.0000000000000000e+00  7.1291381217460577e-15 -4.1966004471043863e-14 0.0000000000000000e+00  1.4703799626151698e-16 -2.9763991848757565e-15 0.0000000000000000e+00  -5.1908646902500984e-17 -7.8428694821024606e-17 0.0000000000000000e+00  2.4528043124294150e-16 1.2484870419680798e-15 0.0000000000000000e+00  9.7359727364897471e-16 8.6280386673402860e-15 0.0000000000000000e+00  1.0625921758970922e-15 4.7118359392641573e-14 0.0000000000000000e+00  -8.7996161929966886e-14 2.5739739892131428e-13 0.0000000000000000e+00  -2.3917498655013022e-13 3.6856621769811434e-13 0.0000000000000000e+00  2.9119139854281876e-13 7.9717522007891847e-13 0.0000000000000000e+00  7.3155464912704239e-11 5.8481262960042252e-12 0.0000000000000000e+00  3.9958926726553814e-10 -5.7418600924914044e-11 0.0000000000000000e+00  9.6671141916676379e-10 -1.3038924762621927e-10 0.0000000000000000e+00  2.3519966468785516e-09 -3.6952092506960551e-10 0.0000000000000000e+00  4.7530547091733309e-09 -3.4417292742977808e-10 0.0000000000000000e+00  1.0528383748155608e-08 1.2088352579447584e-09 0.0000000000000000e+00  2.1492708115524695e-08 5.3440416720160032e-09 0.0000000000000000e+00  1.1479425394753378e-07 -1.1411024644790938e-08 0.0000000000000000e+00  1.6303747105449674e-07 -2.5730590841969787e-08 0.0000000000000000e+00  1.0103484115739780e-07 -1.8586217102967686e-08 0.0000000000000000e+00  3.9080732090662368e-08 -9.7282874018471407e-09 0.0000000000000000e+00  1.9305084857354236e-08 -4.8171098276771412e-09 0.0000000000000000e+00  1.2911428208142412e-08 -5.8941331734992015e-10 0.0000000000000000e+00  9.7150377862700907e-09 3.8456600413358868e-10 0.0000000000000000e+00  5.9661274968066415e-09 1.2189665076368967e-09 0.0000000000000000e+00  1.6111274043751415e-09 1.5565984640012982e-09 0.0000000000000000e+00  7.2085165330314080e-10 1.1883589449788777e-09 0.0000000000000000e+00  8.8215396427191455e-11 7.1905323262209392e-10 0.0000000000000000e+00  -8.8129344662190450e-11 4.1861474609491117e-10 0.0000000000000000e+00  -1.1577129963407761e-10 2.3950059320146741e-10 0.0000000000000000e+00  -9.3476428333366081e-11 6.8725219011353213e-11 0.0000000000000000e+00  9.5878473084635233e-11 -2.0162805133205819e-10 0.0000000000000000e+00  8.7320990681013714e-10 -3.9026901058761393e-10 0.0000000000000000e+00  6.3739839451390702e-09 3.8862633667843765e-10 0.0000000000000000e+00  4.4729563505329805e-08 -3.0871035784323029e-09 0.0000000000000000e+00  1.5643341782461938e-07 -2.0625721287018080e-08 0.0000000000000000e+00  3.0973546215152342e-07 -4.5303229461307248e-08 0.0000000000000000e+00  5.5549769346799218e-07 -9.7672861437283303e-08 0.0000000000000000e+00  8.4931102019970964e-07 -1.9009753785276604e-07 0.0000000000000000e+00  1.6372989862983649e-06 -2.8810294900126298e-07 0.0000000000000000e+00  2.9506934320869228e-06 -1.2827762706104358e-07 0.0000000000000000e+00  8.7430618151097198e-06 6.3672425616249880e-07 0.0000000000000000e+00  2.9635926274986288e-05 3.8052011681153024e-06 0.0000000000000000e+00  9.3049716886594924e-05 1.3091047514008172e-05 0.0000000000000000e+00  2.7657186692338148e-04 9.3711422561214407e-06 0.0000000000000000e+00  6.4511465416410777e-04 1.6527563492933984e-05 0.0000000000000000e+00  1.1121108016363540e-03 6.4677919113042425e-06 0.0000000000000000e+00  1.7415962730400415e-03 -3.8185073652189668e-05 0.0000000000000000e+00  2.3579831039272931e-03 -1.2027332813301702e-04 0.0000000000000000e+00  3.1290172859403352e-03 -2.1793004031091923e-04 0.0000000000000000e+00  4.0978103620415828e-03 -3.1040525816840211e-04 0.0000000000000000e+00  4.6587375822379883e-03 -1.4683676168155411e-04 0.0000000000000000e+00  5.8882716431723804e-03 1.0147694910782982e-04 0.0000000000000000e+00  6.7380244696873762e-03 5.6120230758203315e-05 0.0000000000000000e+00  6.2146556789723379e-03 -1.2407525226784777e-04 0.0000000000000000e+00  4.3539863234011425e-03 -2.1922292989078146e-04 0.0000000000000000e+00  2.1582560011864245e-03 -4.2020318393479905e-04 0.0000000000000000e+00  1.2346905270557459e-03 -3.7038916493198527e-04 0.0000000000000000e+00  6.3602781698780927e-04 -1.8869859235203575e-04 0.0000000000000000e+00  2.5140608953521363e-04 -7.1402567711633717e-05 0.0000000000000000e+00  5.0702186484254610e-05 -1.6795635350534090e-05 0.0000000000000000e+00  1.3141870381793269e-05 -5.7853376342953335e-06 0.0000000000000000e+00  6.7097958553107091e-06 -2.8398518723752593e-06 0.0000000000000000e+00  3.6608902414028383e-06 -1.0820176175772581e-06 0.0000000000000000e+00  1.2573663926647505e-01 -3.4757592039593888e-02 0.0000000000000000e+00  1.2593958747636336e-01 3.5036187185994584e-02 0.0000000000000000e+00  0.0000000000000000e+00 0.0000000000000000e+00 0.0000000000000000e+00  0.0000000000000000e+00 0.0000000000000000e+00 0.0000000000000000e+00  3.1430718084650692e-06 -7.4145270776189596e-07 0.0000000000000000e+00  2.8039009606652470e-06 -5.8549638373281950e-07 0.0000000000000000e+00  2.3758566443967827e-06 -4.2803522689441757e-07 0.0000000000000000e+00  1.9117247199301309e-06 -2.9350889822111802e-07 0.0000000000000000e+00  1.0783721171584325e-06 -1.2149430144375510e-07 0.0000000000000000e+00  7.3149327635652217e-07 -6.7323478709101308e-08 0.0000000000000000e+00  4.5566192902173540e-07 -3.5155184440685552e-08 0.0000000000000000e+00  1.2289021850135738e-07 -8.9366239566049521e-09 0.0000000000000000e+00  7.9744482524313673e-09 -1.4767877961036970e-09 0.0000000000000000e+00  4.1091660858355964e-09 -5.9192585599789568e-10 0.0000000000000000e+00  1.5974051037620524e-10 3.7203836081503866e-11 0.0000000000000000e+00  4.5431833990683107e-11 3.3580064925540698e-11 0.0000000000000000e+00  4.2494293748276040e-12 5.6259973444559202e-12 0.0000000000000000e+00  2.2815672089511754e-12 2.9203802679261229e-12 0.0000000000000000e+00  6.1504372471237379e-13 1.7271695811192236e-12 0.0000000000000000e+00  -2.4894950691014878e-13 9.3275766238638890e-13 0.0000000000000000e+00  -4.0107370194366319e-13 6.5887969792034601e-13 0.0000000000000000e+00  -4.5645890648272001e-13 -2.1563595839329561e-13 0.0000000000000000e+00  -2.8088154666676374e-13 -3.9759249166972204e-13 0.0000000000000000e+00  1.1896670013746024e-15 -1.6445147256994550e-13 0.0000000000000000e+00  2.3890612197785701e-17 3.3033845011883415e-16 0.0000000000000000e+00  -1.7759095009687771e-14 1.3462173434016714e-13 0.0000000000000000e+00  4.0267606950676219e-12 6.9940056575493193e-13 0.0000000000000000e+00  2.0502305263539287e-11 -8.3082778702773625e-13 0.0000000000000000e+00  1.5989891933557009e-09 -2.5219644730911914e-10 0.0000000000000000e+00  3.1569080132794887e-09 -4.0514023918953060e-10 0.0000000000000000e+00  4.8130162561625447e-08 7.7189209059793585e-09 0.0000000000000000e+00  6.8193051253931392e-08 -1.5598005305084208e-08 0.0000000000000000e+00  1.4820863245466689e-08 -2.3306825625013626e-09 0.0000000000000000e+00  7.7252641531337791e-09 7.2622681707132918e-10 0.0000000000000000e+00  3.7600798501260169e-09 1.5674738512366325e-09 0.0000000000000000e+00  2.4883089652961947e-09 1.5968773414477806e-09 0.0000000000000000e+00  3.8415869949724665e-10 9.3854541989046981e-10 0.0000000000000000e+00  2.9518176841875361e-10 -2.4849766524924101e-10 0.0000000000000000e+00  8.5625102489535532e-08 -8.5053925932767009e-09 0.0000000000000000e+00  1.2268776956713481e-06 -2.4969676492683746e-07 0.0000000000000000e+00  1.7356734840425689e-05 2.0083221806865019e-06 0.0000000000000000e+00  1.7296350617577313e-04 1.6122443864908606e-05 0.0000000000000000e+00  1.3873305104758382e-03 -1.4365003746457352e-05 0.0000000000000000e+00  2.7838388112910650e-03 -1.7215589888539481e-04 0.0000000000000000e+00  3.6244478176591299e-03 -2.7798343333326964e-04 0.0000000000000000e+00  5.1986523813518952e-03 3.1016330472532493e-05 0.0000000000000000e+00  6.8537850886944860e-03 1.6727099246992255e-05 0.0000000000000000e+00  3.1900057529031084e-03 -4.0298455614743778e-04 0.0000000000000000e+00  1.1262255305520085e-04 -3.6038230812256091e-05 0.0000000000000000e+00  2.3029094153487286e-05 -9.3058537233542564e-06 0.0000000000000000e+00  8.5362356535223247e-06 -3.8142504505140047e-06 0.0000000000000000e+00  5.5101980845517721e-06 -2.0202209950113085e-06 0.0000000000000000e+00  4.6333159852791880e-06 -1.5420898647338195e-06 0.0000000000000000e+00  4.0461588928979132e-06 -1.2580290642559677e-06 0.0000000000000000e+00  1.1585371173812271e-01 -1.1992360334897796e-02 0.0000000000000000e+00  1.1404437961941462e-01 -1.6859080489812065e-03 0.0000000000000000e+00  1.1437443117792709e-01 5.6196870612734359e-05 0.0000000000000000e+00  1.1388492670338024e-01 -1.0256761698339125e-04 0.0000000000000000e+00  1.1419713113306387e-01 6.2774873334269424e-05 0.0000000000000000e+00  1.1424405331770351e-01 -8.2279643396950710e-05 0.0000000000000000e+00  1.1426369765798305e-01 1.7294279490318836e-05 0.0000000000000000e+00  1.1448843602214548e-01 1.5839927020893482e-03 0.0000000000000000e+00  1.1543185714430092e-01 1.2197556479840402e-02 0.0000000000000000e+00  5.7211061767403724e-02 1.9053582448628720e-02 0.0000000000000000e+00  1.4170684197506108e-02 4.4123014041581848e-03 0.0000000000000000e+00  7.2719129984865998e-04 2.5024347611017389e-04 0.0000000000000000e+00  4.3642357840333958e-06 1.3310585767225046e-06 0.0000000000000000e+00  2.4199257251679753e-08 -1.4094140799224839e-07 0.0000000000000000e+00  1.4849882810875519e-09 -2.3402149828707750e-09 0.0000000000000000e+00  1.7694860618198200e-11 8.6108885579752851e-12 0.0000000000000000e+00  -1.0128316653967209e-13 1.0166658441366197e-12 0.0000000000000000e+00  3.0484533361879128e-15 3.5270657851355784e-14 0.0000000000000000e+00  5.6324366421859457e-15 -4.0172737230085016e-14 0.0000000000000000e+00  1.1316013373961028e-13 -2.0906738511594514e-12 0.0000000000000000e+00  2.7349867008624374e-11 -3.3859937129470215e-11 0.0000000000000000e+00  8.0611883376373017e-10 7.6594904302222337e-10 0.0000000000000000e+00  1.7059161939971893e-08 4.8228998676074111e-08 0.0000000000000000e+00  3.9451070189458677e-06 1.0258338358790885e-07 0.0000000000000000e+00  6.3711830396436084e-04 -1.4081202174323542e-04 0.0000000000000000e+00  1.4506818051454250e-02 -4.7078120269974551e-03 0.0000000000000000e+00  5.7065403227679931e-02 -1.9090974389437264e-02 0.0000000000000000e+00  0.0000000000000000e+00 0.0000000000000000e+00 0.0000000000000000e+00  0.0000000000000000e+00 0.0000000000000000e+00 0.0000000000000000e+00  0.0000000000000000e+00 0.0000000000000000e+00 0.0000000000000000e+00  0.0000000000000000e+00 0.0000000000000000e+00 0.0000000000000000e+00  0.0000000000000000e+00 0.0000000000000000e+00 0.0000000000000000e+00  0.0000000000000000e+00 0.0000000000000000e+00 0.0000000000000000e+00  0.0000000000000000e+00 0.0000000000000000e+00 0.0000000000000000e+00  0.0000000000000000e+00 0.0000000000000000e+00 0.0000000000000000e+00  0.0000000000000000e+00 0.0000000000000000e+00 0.0000000000000000e+00  4.8319194531897096e-06 9.8850942607379114e-08 0.0000000000000000e+00  4.5177426550945827e-03 6.8153335328558123e-06 0.0000000000000000e+00  5.1084460550008902e-15 1.5959997685644530e-15 0.0000000000000000e+00  9.1653194091060359e-14 -1.2395522454425817e-14 0.0000000000000000e+00  2.6461865212920681e-03 4.0618293561109466e-05 0.0000000000000000e+00  3.8333291711469783e-06 3.6301746155544893e-07 0.0000000000000000e+00  2.9539790106329296e-02 2.2657557032299708e-05 0.0000000000000000e+00  5.7968095269066753e-08 -1.1047576195986878e-08 0.0000000000000000e+00  3.6972008348189215e-18 2.7532748995524891e-18 0.0000000000000000e+00  5.2681512417664274e-11 9.1901077794242169e-12 0.0000000000000000e+00  4.0662412644928375e-11 -1.0428232222487858e-11 0.0000000000000000e+00  -1.1645067403710541e-16 7.7153336384324299e-17 0.0000000000000000e+00  -7.5589423347281210e-16 -1.0067382944344784e-15 0.0000000000000000e+00  7.2151033643657256e-02 -1.3510984391190023e-02 0.0000000000000000e+00  7.1402181939111561e-02 1.4404999448143158e-02 0.0000000000000000e+00  -9.1347719922247654e-13 -4.0719507173800229e-12 0.0000000000000000e+00  9.6093273531875635e-08 -1.6457545003990331e-08 0.0000000000000000e+00  1.8089316011665899e-08 -2.9939088686710291e-09 0.0000000000000000e+00  1.1572499612832416e-09 1.1113613355469536e-09 0.0000000000000000e+00  2.1614566740571448e-06 -9.3263529569247333e-08 0.0000000000000000e+00  3.7840937392861031e-13 1.5358145055484081e-12 0.0000000000000000e+00  3.0657626668276531e-06 -8.4965536239561337e-07 0.0000000000000000e+00  3.5886034057437087e-16 -2.7672301653105767e-16 0.0000000000000000e+00  2.4705948666771334e-02 -8.1653918620607337e-04 0.0000000000000000e+00  4.8085576987783470e-05 -2.7497378010511980e-06 0.0000000000000000e+00  3.0480806322012145e-02 -7.6683712747645403e-06 0.0000000000000000e+00  1.6408886255368414e-04 -9.5786459176052826e-06 0.0000000000000000e+00  3.4141779792127208e-02 1.1083185928853690e-04 0.0000000000000000e+00  3.8588148778944515e-14 1.7875583619771554e-14 0.0000000000000000e+00  7.6703339559432540e-14 3.1484389727812890e-15 0.0000000000000000e+00  3.5696234507148886e-08 8.0498794694257822e-09 0.0000000000000000e+00  2.5835926468381728e-02 1.9872899329678034e-03 0.0000000000000000e+00  1.1403683556231760e-15 1.1126565260897647e-15 0.0000000000000000e+00  1.1885565701790551e-04 1.0712283222122684e-05 0.0000000000000000e+00  4.0122700093665373e-04 9.9800103846421405e-06 0.0000000000000000e+00  3.2002464883454087e-12 -1.3017810360702693e-12 0.0000000000000000e+00  7.3033121580378004e-13 2.8253479134907919e-13 0.0000000000000000e+00  2.0330402958502614e-17 3.7291675916157285e-18 0.0000000000000000e+00  4.3441047002763154e-16 -5.3935881056546078e-17 0.0000000000000000e+00  1.8737745814790208e-09 -3.4315635959949052e-10 0.0000000000000000e+00  7.0007888217350572e-02 -3.9690430005451820e-05 0.0000000000000000e+00  8.9430602171643023e-06 1.3538884542335958e-07 0.0000000000000000e+00  1.7873347466145231e-02 7.0210216931295918e-05 0.0000000000000000e+00  4.7651932214001994e-03 -2.2429156111031530e-05 0.0000000000000000e+00  2.0055696603325068e-08 -2.5474600002787485e-09 0.0000000000000000e+00  1.4759068378963441e-19 -3.4788527497911944e-20 0.0000000000000000e+00  3.4585567274526850e-10 3.5734810144461330e-11 0.0000000000000000e+00  9.0199671924502244e-11 1.2763503820041170e-10 0.0000000000000000e+00  -2.1563942323809686e-13 -9.0005519737224648e-13 0.0000000000000000e+00  1.0992963533853170e-06 -5.8680079517539264e-08 0.0000000000000000e+00  -6.0608959649115524e-13 1.4288900187144268e-12 0.0000000000000000e+00  3.7576467441487482e-07 -3.9796720730936751e-08 0.0000000000000000e+00  2.4686573761706698e-07 -3.7298390688908644e-08 0.0000000000000000e+00  5.8683977643377956e-09 1.1462776370042365e-09 0.0000000000000000e+00  4.4083773179546550e-08 -8.7740087673438069e-09 0.0000000000000000e+00  2.0841424329055596e-10 4.5833530494406777e-10 0.0000000000000000e+00  3.4990193274700705e-06 -6.5022754593289266e-08 0.0000000000000000e+00  2.3866544518756681e-08 -5.0412922620318763e-09 0.0000000000000000e+00  1.4149457906369252e-06 -1.0815856105093240e-07 0.0000000000000000e+00  9.8545271359156472e-09 -1.0463402867827536e-09 0.0000000000000000e+00  7.0113561699207035e-10 8.4055558867860104e-10 0.0000000000000000e+00  2.1272186849772722e-09 1.1241176998441115e-09 0.0000000000000000e+00  -9.4333378814031953e-14 8.5678156042860980e-13 0.0000000000000000e+00  9.0997008220811048e-13 1.7533018784659309e-12 0.0000000000000000e+00  2.1911427724978254e-13 1.2360171150833866e-12 0.0000000000000000e+00  2.2227827430144939e-06 -5.0773389195629177e-07 0.0000000000000000e+00  3.5729762602859204e-06 -1.0638135776301367e-06 0.0000000000000000e+00  3.1033427209860979e-06 -8.2461225382799937e-07 0.0000000000000000e+00  2.9182359249717427e-05 -3.9756191807909986e-06 0.0000000000000000e+00  4.4410205938815901e-02 -7.6122428394805741e-05 0.0000000000000000e+00  9.9722039971685251e-18 4.6892654480167265e-18 0.0000000000000000e+00  5.5504921353172733e-02 4.3639657945847834e-06 0.0000000000000000e+00  3.3957139856824774e-16 3.5749049785832027e-16 0.0000000000000000e+00  4.5672548531205150e-03 -1.7340461422062848e-04 0.0000000000000000e+00  5.2473515125472256e-02 -3.5314323930499423e-05 0.0000000000000000e+00  3.8902135574622968e-03 -1.0389771932035176e-04 0.0000000000000000e+00  1.5517745082165651e-12 8.6417668089126914e-13 0.0000000000000000e+00  3.3497570964535082e-18 -2.5890399608924448e-18 0.0000000000000000e+00  4.3406920522123553e-12 1.8911690069381022e-13 0.0000000000000000e+00  1.8396756239550145e-16 -6.7349715844565778e-17 0.0000000000000000e+00  4.9760640616295780e-02 1.6146787553022238e-03 0.0000000000000000e+00  2.7129753374014859e-06 -2.0415506004593322e-07 0.0000000000000000e+00  2.2646061284690407e-16 -2.1184023473286007e-18 0.0000000000000000e+00  1.7289354995028186e-07 1.3166301046304104e-08 0.0000000000000000e+00  6.1677568256305361e-02 -4.2140970930904234e-03 0.0000000000000000e+00  3.3060743095879139e-07 6.7808630877276804e-08 0.0000000000000000e+00  6.6304384166606681e-12 -9.0064924808965250e-13 0.0000000000000000e+00  9.6042909750771871e-03 -2.9598490577702366e-05 0.0000000000000000e+00  3.0696254846294150e-03 2.3165228640097067e-04 0.0000000000000000e+00  3.0966015126036909e-10 2.8831640026755886e-11 0.0000000000000000e+00  2.7856344908992199e-16 -4.2357102237127561e-16 0.0000000000000000e+00  3.1037405331903689e-02 -4.3292068784333143e-03 0.0000000000000000e+00  8.3584389030815969e-06 -1.1382240827979746e-06 0.0000000000000000e+00  4.5663229703482935e-14 -6.7934736371724953e-14 0.0000000000000000e+00  4.6019826352491263e-13 -4.2134147248970305e-14 0.0000000000000000e+00  1.8472582965072060e-09 -3.6928287369853091e-10 0.0000000000000000e+00  1.4157480372498394e-04 -8.2556193073155351e-06 0.0000000000000000e+00  3.5743898265033536e-15 4.2700643013197210e-16 0.0000000000000000e+00  1.7504966927482207e-14 4.2387609289720228e-14 0.0000000000000000e+00  6.4923802680888071e-03 1.0567008307331390e-04 0.0000000000000000e+00  4.3349062986573810e-05 2.2965621164451018e-06 0.0000000000000000e+00  2.2325820476340950e-16 3.7746209042621045e-16 0.0000000000000000e+00  1.2337642302334316e-14 7.6743215165537761e-15 0.0000000000000000e+00  4.6994172159363980e-04 3.5995592307369848e-05 0.0000000000000000e+00  8.4248630169091114e-05 -1.6104261938333175e-06 0.0000000000000000e+00  7.8612684096070185e-04 -1.8041588697804161e-05 0.0000000000000000e+00  3.6975893599687937e-09 -6.7200822093090810e-10 0.0000000000000000e+00  1.5981738429446606e-02 -4.7876080306392978e-05 0.0000000000000000e+00  1.0515293961736148e-10 -1.4598618011456953e-11 0.0000000000000000e+00  2.2759806595673324e-11 -2.0285766170759030e-11 0.0000000000000000e+00  2.3526087268209380e-12 2.8053882627284842e-12 0.0000000000000000e+00  7.2948257096304585e-06 -5.9125957374406926e-07 0.0000000000000000e+00  9.1848131615154642e-09 -4.2432719033103155e-10 0.0000000000000000e+00  3.2828047570672613e-09 3.0177821757499549e-10 0.0000000000000000e+00  1.1115537913771580e-05 -4.9750262425539747e-08 0.00