<?xml version="1.0"?>
<VTKFile type="UnstructuredGrid"  version="0.1"  >
<UnstructuredGrid>
<Piece  NumberOfPoints="2868" NumberOfCells="5400">
<Points>
<DataArray  type="Float64"  NumberOfComponents="3"  format="ascii">0.534923 0.326073 0  0.510642 0.314196 0  0.466125 0.293082 0  0.436448 0.281205 0  0.409468 0.275927 0  0.368998 0.270648 0  0.35281 0.275927 0  0.381139 0.302319 0  0.405421 0.326073 0  0.410817 0.33531 0  0.408119 0.349826 0  0.400025 0.357744 0  0.375743 0.368301 0  0.329878 0.392055 0  0.297502 0.432963 0  0.282663 0.476511 0  0.285361 0.524018 0  0.298851 0.572845 0  0.317737 0.6045160000000001 0  0.337972 0.6361869999999999 0  0.360904 0.674457 0  0.368998 0.69953 0  0.359555 0.7219640000000001 0  0.360904 0.757594 0  0.370347 0.766831 0  0.381139 0.762872 0  0.390582 0.741758 0  0.404072 0.720644 0  0.424307 0.707448 0  0.447239 0.702169 0  0.480964 0.704808 0  0.479615 0.6889729999999999 0  0.468823 0.675776 0  0.447239 0.6691780000000001 0  0.428354 0.6691780000000001 0  0.410817 0.6639 0  0.404072 0.653343 0  0.395978 0.628269 0  0.387884 0.59132 0  0.389233 0.576804 0  0.397327 0.557009 0  0.410817 0.547772 0  0.424307 0.546452 0  0.437797 0.55305 0  0.44589 0.5662469999999999 0  0.441843 0.582082 0  0.439145 0.5979179999999999 0  0.449937 0.609795 0  0.468823 0.603196 0  0.479615 0.59 0  0.489058 0.570205 0  0.494454 0.546452 0  0.505246 0.522699 0  0.522783 0.509502 0  0.55246 0.494986 0  0.586185 0.484429 0  0.615863 0.48047 0  0.64554 0.473872 0  0.6671240000000001 0.461995 0  0.683312 0.451438 0  0.696802 0.435603 0  0.703547 0.417128 0  0.7116400000000001 0.393374 0  0.7183850000000001 0.37226 0  0.7251300000000001 0.364342 0  0.739969 0.353785 0  0.7453650000000001 0.344548 0  0.7453650000000001 0.327393 0  0.737271 0.318155 0  0.7183850000000001 0.316835 0  0.7008490000000001 0.319475 0  0.677916 0.318155 0  0.650936 0.316835 0  0.610467 0.318155 0  0.57944 0.324753 0  0.559205 0.328712 0  0.5389699999999999 0.326073 0  1 1 0  1 0 0  0 0 0  0 1 0  0.532238 0.32476 0  0.528748 0.323052 0  0.52421 0.320833 0  0.518311 0.317947 0  0.503447 0.310783 0  0.494093 0.306347 0  0.481933 0.30058 0  0.452151 0.28749 0  0.392327 0.273691 0  0.379141 0.271971 0  0.360474 0.283066 0  0.369797 0.291752 0  0.391424 0.31238 0  0.399335 0.32012 0  0.40958 0.341964 0  0.393939 0.36039 0  0.386028 0.36383 0  0.364248 0.374254 0  0.349304 0.381994 0  0.315801 0.409841 0  0.292986 0.551616 0  0.350934 0.657818 0  0.360127 0.737055 0  0.360566 0.748664 0  0.385245 0.753692 0  0.396447 0.732578 0  0.466301 0.703661 0  0.459439 0.672908 0  0.418442 0.666195 0  0.400553 0.642441 0  0.39255 0.612619 0  0.389913 0.60058 0  0.392752 0.568197 0  0.444131 0.573132 0  0.458149 0.606926 0  0.5005540000000001 0.533026 0  0.571522 0.489019 0  0.632637 0.476741 0  0.689177 0.444553 0  0.708121 0.403702 0  0.715453 0.38144 0  0.732406 0.359166 0  0.7453650000000001 0.337089 0  0.72906 0.317581 0  0.629879 0.317522 0  0.59293 0.321884 0  0.568003 0.326991 0  0.55202 0.327775 0  0.546493 0.327054 0  0.542241 0.326499 0  1 0.9 0  1 0.8 0  1 0.7 0  1 0.6 0  1 0.5 0  1 0.4 0  1 0.3 0  1 0.2 0  1 0.1 0  0.9 0 0  0.8 0 0  0.7 0 0  0.6 0 0  0.5 0 0  0.4 0 0  0.3 0 0  0.2 0 0  0.1 0 0  0.1 1 0  0.2 1 0  0.3 1 0  0.4 1 0  0.5 1 0  0.6 1 0  0.7 1 0  0.8 1 0  0.9 1 0  0 0.1 0  0 0.2 0  0 0.3 0  0 0.4 0  0 0.5 0  0 0.6 0  0 0.7 0  0 0.8 0  0 0.9 0  0.535686 0.5031910000000001 0  0.753987 0.733359 0  0.167145 0.741436 0  0.173378 0.257204 0  0.733497 0.159862 0  0.554096 0.15788 0  0.849187 0.479053 0  0.488793 0.838452 0  0.138507 0.5592 0  0.30686 0.154944 0  0.348904 0.890523 0  0.058006 0.065099 0  0.06984899999999999 0.937917 0  0.93633 0.939704 0  0.934625 0.053613 0  0.343397 0.333452 0  0.473272 0.639943 0  0.433266 0.638072 0  0.415174 0.58269 0  0.533435 0.545042 0  0.390848 0.340652 0  0.53655 0.320242 0  0.127966 0.393775 0  0.83861 0.850455 0  0.635242 0.8551299999999999 0  0.852158 0.633441 0  0.653427 0.626848 0  0.861226 0.24292 0  0.166128 0.12976 0  0.216875 0.8698709999999999 0  0.458305 0.11179 0  0.84446 0.101633 0  0.202024 0.642528 0  0.644825 0.115855 0  0.671342 0.218358 0  0.251354 0.286186 0  0.262388 0.75153 0  0.063044 0.751571 0  0.068189 0.242962 0  0.435781 0.9053949999999999 0  0.934144 0.451133 0  0.568393 0.237622 0  0.814984 0.395506 0  0.752951 0.517227 0  0.456254 0.780699 0  0.073352 0.531116 0  0.337731 0.206071 0  0.363213 0.960371 0  0.330742 0.363592 0  0.516613 0.55705 0  0.369057 0.332992 0  0.500926 0.617309 0  0.498004 0.665534 0  0.412142 0.61178 0  0.454233 0.6366039999999999 0  0.422782 0.567496 0  0.541193 0.5214800000000001 0  0.439761 0.65557 0  0.5163 0.533672 0  0.414775 0.64562 0  0.40073 0.576135 0  0.430362 0.5880339999999999 0  0.385432 0.351492 0  0.400298 0.335397 0  0.398325 0.348194 0  0.528702 0.314885 0  0.540814 0.322334 0  0.534477 0.322953 0  0.619095 0.743583 0  0.885162 0.737972 0  0.08076 0.668849 0  0.90734 0.36634 0  0.09468699999999999 0.868937 0  0.759838 0.912152 0  0.901518 0.540898 0  0.747285 0.607479 0  0.229182 0.071641 0  0.06915399999999999 0.450091 0  0.244775 0.203309 0  0.076534 0.331755 0  0.897847 0.167826 0  0.578909 0.911415 0  0.07713299999999999 0.146341 0  0.477215 0.203448 0  0.922631 0.869341 0  0.517415 0.074785 0  0.297026 0.827793 0  0.7832710000000001 0.246505 0  0.74519 0.061079 0  0.36033 0.069068 0  0.210313 0.475228 0  0.859426 0.928758 0  0.5745479999999999 0.609182 0  0.243069 0.383398 0  0.283099 0.934598 0  0.417416 0.843141 0  0.643942 0.553164 0  0.112687 0.079336 0  0.281357 0.658386 0  0.765043 0.436177 0  0.611361 0.198486 0  0.234496 0.58911 0  0.206479 0.702638 0  0.679608 0.155818 0  0.62682 0.259978 0  0.690538 0.264164 0  0.448938 0.956308 0  0.808154 0.328403 0  0.379583 0.91913 0  0.308083 0.297769 0  0.312358 0.730249 0  0.563101 0.278576 0  0.435597 0.746198 0  0.385475 0.225229 0  0.572248 0.518034 0  0.357864 0.35422 0  0.497647 0.641694 0  0.458101 0.655768 0  0.360474 0.310727 0  0.467038 0.620139 0  0.47798 0.659909 0  0.41102 0.628072 0  0.48324 0.609015 0  0.427544 0.617941 0  0.388633 0.328253 0  0.405336 0.599404 0  0.408351 0.565178 0  0.42395 0.600985 0  0.431562 0.576523 0  0.424905 0.6551979999999999 0  0.398064 0.58782 0  0.427739 0.557934 0  0.5192909999999999 0.303443 0  0.53142 0.320293 0  0.5449000000000001 0.323642 0  0.537166 0.323513 0  0.153974 0.920841 0  0.9181859999999999 0.67343 0  0.759946 0.820588 0  0.5375259999999999 0.783091 0  0.816532 0.545843 0  0.813991 0.178083 0  0.836774 0.702023 0  0.149815 0.318856 0  0.662287 0.923338 0  0.680146 0.791192 0  0.708961 0.663172 0  0.9372779999999999 0.287318 0  0.574622 0.6881660000000001 0  0.5894740000000001 0.076262 0  0.502822 0.926683 0  0.222269 0.811068 0  0.380457 0.164786 0  0.15321 0.684154 0  0.458063 0.051413 0  0.161702 0.056026 0  0.199351 0.198818 0  0.298946 0.09553200000000001 0  0.902465 0.795949 0  0.121139 0.791477 0  0.906269 0.112287 0  0.056109 0.822332 0  0.512172 0.13237 0  0.940964 0.741805 0  0.888887 0.408777 0  0.354543 0.825964 0  0.808736 0.068638 0  0.068507 0.394071 0  0.719105 0.563843 0  0.247287 0.149664 0  0.293062 0.237128 0  0.240524 0.434997 0  0.141255 0.623289 0  0.945202 0.160621 0  0.502914 0.247629 0  0.144669 0.480811 0  0.665025 0.060817 0  0.728047 0.224344 0  0.861995 0.313312 0  0.200068 0.534235 0  0.253262 0.965623 0  0.893804 0.49307 0  0.604391 0.572456 0  0.947088 0.345347 0  0.439372 0.227307 0  0.629847 0.159823 0  0.273405 0.880181 0  0.302744 0.776823 0  0.781502 0.295365 0  0.275342 0.349602 0  0.7283849999999999 0.472798 0  0.229136 0.246478 0  0.807794 0.480346 0  0.709476 0.112786 0  0.275506 0.694991 0  0.771674 0.394419 0  0.449715 0.861802 0  0.419159 0.799696 0  0.674851 0.503139 0  0.280443 0.61016 0  0.572443 0.192538 0  0.393113 0.87525 0  0.405555 0.948428 0  0.330942 0.934103 0  0.540509 0.597101 0  0.312763 0.6689310000000001 0  0.254368 0.540179 0  0.595265 0.25915 0  0.606679 0.234099 0  0.657131 0.279138 0  0.722458 0.279478 0  0.333 0.308056 0  0.351529 0.246142 0  0.455714 0.7257940000000001 0  0.585239 0.295143 0  0.340062 0.72492 0  0.545593 0.293773 0  0.555449 0.545426 0  0.414311 0.737314 0  0.590854 0.502323 0  0.350507 0.368444 0  0.484423 0.625665 0  0.483899 0.674542 0  0.378137 0.317274 0  0.446416 0.646404 0  0.373532 0.347654 0  0.446876 0.619769 0  0.466106 0.666068 0  0.437545 0.609254 0  0.434988 0.565726 0  0.41462 0.656829 0  0.418803 0.556961 0  0.398425 0.327446 0  0.517803 0.310421 0  0.549516 0.322918 0  0.57701 0.842889 0  0.8291269999999999 0.773906 0  0.643235 0.684732 0  0.134281 0.207734 0  0.865997 0.055966 0  0.680959 0.723345 0  0.165229 0.8415550000000001 0  0.54558 0.959672 0  0.783726 0.656439 0  0.913315 0.595533 0  0.699439 0.860667 0  0.785839 0.125076 0  0.551673 0.037713 0  0.9200970000000001 0.223214 0  0.206406 0.299726 0  0.087064 0.596401 0  0.935644 0.394252 0  0.964557 0.252582 0  0.230124 0.928346 0  0.120579 0.271764 0  0.8572149999999999 0.524082 0  0.7670979999999999 0.5551469999999999 0  0.936094 0.507131 0  0.804064 0.59585 0  0.700565 0.608273 0  0.429773 0.174231 0  0.117746 0.727333 0  0.5389620000000001 0.730231 0  0.862761 0.359173 0  0.821444 0.284046 0  0.193552 0.35818 0  0.234923 0.505555 0  0.193209 0.421217 0  0.220144 0.755896 0  0.594015 0.131642 0  0.283813 0.195855 0  0.517519 0.213961 0  0.553509 0.639116 0  0.280391 0.378018 0  0.852183 0.436817 0  0.746983 0.197173 0  0.821806 0.221318 0  0.449853 0.828453 0  0.883758 0.453926 0  0.183484 0.589542 0  0.348384 0.129314 0  0.255254 0.838525 0  0.504849 0.798516 0  0.320344 0.863432 0  0.611669 0.525425 0  0.265864 0.804962 0  0.72056 0.521442 0  0.613372 0.6101220000000001 0  0.481262 0.881068 0  0.655778 0.191988 0  0.701921 0.196918 0  0.5658260000000001 0.5731810000000001 0  0.46914 0.240927 0  0.343219 0.173284 0  0.888786 0.278502 0  0.244113 0.6750930000000001 0  0.739546 0.417914 0  0.784023 0.355942 0  0.326805 0.265549 0  0.248616 0.6
[...]
<PointData  Vectors="f_21"> 
<DataArray  type="Float64"  Name="f_21"  NumberOfComponents="3" format="ascii">1.3268731932726825e+00 2.4198430814377897e-01 0.0000000000000000e+00  1.2793951530725809e+00 2.7591104334801475e-01 0.0000000000000000e+00  1.1270054583225446e+00 3.3481714777208549e-01 0.0000000000000000e+00  9.8782222188091673e-01 3.5857460667332375e-01 0.0000000000000000e+00  8.5437508991693334e-01 3.6074927553501152e-01 0.0000000000000000e+00  6.2482131193895696e-01 3.4967935265994921e-01 0.0000000000000000e+00  4.8738843965199541e-01 3.1153201973894945e-01 0.0000000000000000e+00  3.3631280659287582e-01 3.9077619500284921e-01 0.0000000000000000e+00  2.6171141280760557e-01 4.5613482571092206e-01 0.0000000000000000e+00  2.3343937009930288e-01 4.7251311095920562e-01 0.0000000000000000e+00  1.8837442164400015e-01 4.6419106291323459e-01 0.0000000000000000e+00  1.6348040100349442e-01 4.3894402913791158e-01 0.0000000000000000e+00  1.3020445036372100e-01 3.6078856558254974e-01 0.0000000000000000e+00  7.5242557577205021e-02 1.9928020785466802e-01 0.0000000000000000e+00  2.7627967338104846e-02 7.4559177390963016e-02 0.0000000000000000e+00  8.4137623679098328e-03 -1.6606552130817399e-02 0.0000000000000000e+00  8.3048079263504243e-03 -9.9520743258586758e-02 0.0000000000000000e+00  2.1826061304321537e-02 -1.8999880984035622e-01 0.0000000000000000e+00  4.9784525920652752e-02 -2.7343259467946113e-01 0.0000000000000000e+00  1.0096899466365622e-01 -3.6354756810600858e-01 0.0000000000000000e+00  1.9812498588181626e-01 -4.7143626397557714e-01 0.0000000000000000e+00  2.8042663982311355e-01 -5.1380810751013473e-01 0.0000000000000000e+00  3.6238363511275279e-01 -5.0092757507480468e-01 0.0000000000000000e+00  6.0995480585190109e-01 -5.4027232466233921e-01 0.0000000000000000e+00  8.0677967116016469e-01 -5.8929486248965701e-01 0.0000000000000000e+00  9.6958551670285242e-01 -5.9224641018682056e-01 0.0000000000000000e+00  1.2135931249681715e+00 -5.7763297322588492e-01 0.0000000000000000e+00  1.3365260433125956e+00 -5.2131867096874773e-01 0.0000000000000000e+00  1.3901119387875034e+00 -4.5833660195557541e-01 0.0000000000000000e+00  1.4153802746398292e+00 -4.1169644321604082e-01 0.0000000000000000e+00  1.4935909594377783e+00 -4.1391424573199231e-01 0.0000000000000000e+00  1.6233383205219110e+00 -4.5062529963769188e-01 0.0000000000000000e+00  1.6911809126481911e+00 -4.9905762986379565e-01 0.0000000000000000e+00  1.7179228919034417e+00 -5.8488211253595790e-01 0.0000000000000000e+00  1.7163184977707722e+00 -6.6329717028109791e-01 0.0000000000000000e+00  1.7377832364333348e+00 -7.3702075113534371e-01 0.0000000000000000e+00  1.7815852211401559e+00 -7.6539836527157101e-01 0.0000000000000000e+00  1.8858154919907013e+00 -8.0069308609345013e-01 0.0000000000000000e+00  2.0418929804097541e+00 -8.3638364940045484e-01 0.0000000000000000e+00  2.1030830691977234e+00 -8.3075496231810464e-01 0.0000000000000000e+00  2.1861988605832749e+00 -7.9687301278866673e-01 0.0000000000000000e+00  2.2250567879654546e+00 -7.4030233496881104e-01 0.0000000000000000e+00  2.2307133530744125e+00 -6.8355266576346985e-01 0.0000000000000000e+00  2.2030028296337605e+00 -6.2659766865697353e-01 0.0000000000000000e+00  2.1473069207855850e+00 -5.9225804083456790e-01 0.0000000000000000e+00  2.0803345517639871e+00 -6.0892545030057665e-01 0.0000000000000000e+00  2.0124705244101366e+00 -6.1934612269088207e-01 0.0000000000000000e+00  1.9568502870643365e+00 -5.7186676318661156e-01 0.0000000000000000e+00  1.9711761226254387e+00 -4.9170210756466565e-01 0.0000000000000000e+00  2.0067147571944797e+00 -4.4727625851010372e-01 0.0000000000000000e+00  2.0582630387959036e+00 -4.0938027046552861e-01 0.0000000000000000e+00  2.1173000954475447e+00 -3.8761724116207308e-01 0.0000000000000000e+00  2.1743816876926298e+00 -3.5610033776005223e-01 0.0000000000000000e+00  2.2044571497267120e+00 -3.0973258649430158e-01 0.0000000000000000e+00  2.2325938359365987e+00 -2.3320992334494592e-01 0.0000000000000000e+00  2.2465293480511810e+00 -1.5050346761758873e-01 0.0000000000000000e+00  2.2413908470702055e+00 -8.0834332044891502e-02 0.0000000000000000e+00  2.2322758137078944e+00 -1.2305745591951597e-02 0.0000000000000000e+00  2.2263714852208230e+00 3.3995146703722640e-02 0.0000000000000000e+00  2.2160171494839611e+00 7.2452515865807518e-02 0.0000000000000000e+00  2.1985750968994644e+00 1.0920497351299245e-01 0.0000000000000000e+00  2.1718709956951243e+00 1.3649268263632142e-01 0.0000000000000000e+00  2.1333189221871400e+00 1.6020421879557203e-01 0.0000000000000000e+00  2.0944426477176408e+00 1.7001520787760135e-01 0.0000000000000000e+00  2.0808277143614631e+00 1.6747185154202462e-01 0.0000000000000000e+00  2.0507878705250215e+00 1.7130352434208757e-01 0.0000000000000000e+00  2.0087322330064312e+00 1.7868097827429513e-01 0.0000000000000000e+00  1.8996484336754695e+00 1.9046039194165393e-01 0.0000000000000000e+00  1.8042431087779625e+00 1.9934394011841838e-01 0.0000000000000000e+00  1.7059807907129894e+00 1.9224895111803567e-01 0.0000000000000000e+00  1.6516948211728566e+00 1.8784653960488690e-01 0.0000000000000000e+00  1.5950474571396600e+00 1.9443146693363275e-01 0.0000000000000000e+00  1.5232790971391763e+00 2.0422844968353096e-01 0.0000000000000000e+00  1.4222692425180727e+00 2.1428681166431082e-01 0.0000000000000000e+00  1.3642617133727737e+00 2.1582543760396938e-01 0.0000000000000000e+00  1.3458529800975472e+00 2.2163940289037057e-01 0.0000000000000000e+00  1.3289516952493148e+00 2.3777240074143574e-01 0.0000000000000000e+00  1.6897994698064078e+00 2.0899618160833452e-01 0.0000000000000000e+00  1.5628491550161303e+00 -9.0933999997857826e-02 0.0000000000000000e+00  0.0000000000000000e+00 0.0000000000000000e+00 0.0000000000000000e+00  0.0000000000000000e+00 0.0000000000000000e+00 0.0000000000000000e+00  1.3237177379186722e+00 2.4556236467471901e-01 0.0000000000000000e+00  1.3183281373419009e+00 2.5033952150512040e-01 0.0000000000000000e+00  1.3100596018244464e+00 2.5662361281370138e-01 0.0000000000000000e+00  1.2978232327533579e+00 2.6501334690043643e-01 0.0000000000000000e+00  1.2602027489523262e+00 2.8594422115625556e-01 0.0000000000000000e+00  1.2322384158430391e+00 2.9904992842939715e-01 0.0000000000000000e+00  1.1912011995513421e+00 3.1522798053712353e-01 0.0000000000000000e+00  1.0666178304103644e+00 3.4834204431349419e-01 0.0000000000000000e+00  7.6999431402467844e-01 3.5625301575578416e-01 0.0000000000000000e+00  6.9866097064925692e-01 3.5318262474102186e-01 0.0000000000000000e+00  4.2290330412246901e-01 3.4220729456634064e-01 0.0000000000000000e+00  3.7673708899058328e-01 3.6431979641793955e-01 0.0000000000000000e+00  3.0346742523240849e-01 4.1642575647080909e-01 0.0000000000000000e+00  2.7975462521193090e-01 4.3831595764344961e-01 0.0000000000000000e+00  2.1289014132092327e-01 4.6871669691826234e-01 0.0000000000000000e+00  1.5506299941625248e-01 4.1976656721540728e-01 0.0000000000000000e+00  1.4408583745000875e-01 3.9453115349905044e-01 0.0000000000000000e+00  1.1297160986469484e-01 3.2165032063896487e-01 0.0000000000000000e+00  9.3724730601372291e-02 2.6958496814176502e-01 0.0000000000000000e+00  4.9850776002753942e-02 1.4401828169675684e-01 0.0000000000000000e+00  1.4508671302738751e-02 -1.4834404083935840e-01 0.0000000000000000e+00  1.5059733466646366e-01 -4.2481541196899286e-01 0.0000000000000000e+00  4.3866627668947672e-01 -5.2374780553881062e-01 0.0000000000000000e+00  5.1804376196527591e-01 -5.3948844889481495e-01 0.0000000000000000e+00  1.1093553895997355e+00 -5.9697523675209319e-01 0.0000000000000000e+00  1.2748802319127741e+00 -5.5187875847130330e-01 0.0000000000000000e+00  1.4393118615293117e+00 -3.9607834004992482e-01 0.0000000000000000e+00  1.7036821945000855e+00 -5.3580583172096929e-01 0.0000000000000000e+00  1.7283314733868642e+00 -7.0496385058683253e-01 0.0000000000000000e+00  1.8267614640381464e+00 -7.8058212141240035e-01 0.0000000000000000e+00  1.9517014853001600e+00 -8.1607078157501811e-01 0.0000000000000000e+00  2.0026852128288963e+00 -8.2767181106421028e-01 0.0000000000000000e+00  2.1392346931402102e+00 -8.1601251509150541e-01 0.0000000000000000e+00  2.1182192303272509e+00 -5.9958620332888590e-01 0.0000000000000000e+00  1.9636649166052744e+00 -5.3659787487774169e-01 0.0000000000000000e+00  2.1495428470070679e+00 -3.6937448611622808e-01 0.0000000000000000e+00  2.2409447313149680e+00 -1.8593147814345559e-01 0.0000000000000000e+00  2.2377400416615685e+00 -4.2194231666600523e-02 0.0000000000000000e+00  2.2092752004058744e+00 8.9294643172381685e-02 0.0000000000000000e+00  2.1509440687355972e+00 1.5127655143970431e-01 0.0000000000000000e+00  2.1112278290544166e+00 1.6772700719237796e-01 0.0000000000000000e+00  2.0683282505599467e+00 1.6745495080256229e-01 0.0000000000000000e+00  1.9670457308835629e+00 1.9180890925152227e-01 0.0000000000000000e+00  1.7550503832735611e+00 1.9425816576142074e-01 0.0000000000000000e+00  1.4691767173243306e+00 2.0908347733735225e-01 0.0000000000000000e+00  1.3846882871242361e+00 2.1486272989854649e-01 0.0000000000000000e+00  1.3519205037413955e+00 2.1814999821039832e-01 0.0000000000000000e+00  1.3407218456599677e+00 2.2638920242633093e-01 0.0000000000000000e+00  1.3358076627690658e+00 2.3091615029548640e-01 0.0000000000000000e+00  1.3319232832660659e+00 2.3467009593522528e-01 0.0000000000000000e+00  1.8409216730063838e+00 2.4236005066285243e-01 0.0000000000000000e+00  2.0046821345439723e+00 2.5996699517737737e-01 0.0000000000000000e+00  2.1509202256988842e+00 2.4365335058394552e-01 0.0000000000000000e+00  2.2519397132014243e+00 1.9183143760087720e-01 0.0000000000000000e+00  2.2810851593854937e+00 9.7088324718436467e-02 0.0000000000000000e+00  2.2225890600332443e+00 -8.7826524746262968e-03 0.0000000000000000e+00  2.0752878479925183e+00 -9.1645592685168351e-02 0.0000000000000000e+00  1.8948178364320536e+00 -1.1899563845776541e-01 0.0000000000000000e+00  1.7275834544660515e+00 -1.1241942440785670e-01 0.0000000000000000e+00  1.4653317392470018e+00 7.9853846860766325e-02 0.0000000000000000e+00  1.3599041897698183e+00 2.3752547127057544e-01 0.0000000000000000e+00  1.2389000189108619e+00 3.6111484754896767e-01 0.0000000000000000e+00  1.0979844610984757e+00 4.5452604176552486e-01 0.0000000000000000e+00  9.5797381793217018e-01 5.1271308103255464e-01 0.0000000000000000e+00  8.2406702086498562e-01 5.1640476745332353e-01 0.0000000000000000e+00  6.7541487855963567e-01 4.4269493340971716e-01 0.0000000000000000e+00  4.8996227002021375e-01 3.0561251554686258e-01 0.0000000000000000e+00  2.6951308469522306e-01 1.6277129240132002e-01 0.0000000000000000e+00  3.2480801424891448e-01 -2.2659628647147720e-01 0.0000000000000000e+00  5.6228900808426763e-01 -3.9729488552713871e-01 0.0000000000000000e+00  7.4363371572960246e-01 -5.5827021817815714e-01 0.0000000000000000e+00  8.5461698983367151e-01 -6.2609611800442466e-01 0.0000000000000000e+00  9.5728154169033020e-01 -5.4367686855513031e-01 0.0000000000000000e+00  1.1012127992201788e+00 -3.8331830515082477e-01 0.0000000000000000e+00  1.2770544035306031e+00 -2.0930321885815775e-01 0.0000000000000000e+00  1.4473394827941597e+00 -5.9009911736522307e-02 0.0000000000000000e+00  1.5864426026775089e+00 6.8778630198860671e-02 0.0000000000000000e+00  0.0000000000000000e+00 0.0000000000000000e+00 0.0000000000000000e+00  0.0000000000000000e+00 0.0000000000000000e+00 0.0000000000000000e+00  0.0000000000000000e+00 0.0000000000000000e+00 0.0000000000000000e+00  0.0000000000000000e+00 0.0000000000000000e+00 0.0000000000000000e+00  0.0000000000000000e+00 0.0000000000000000e+00 0.0000000000000000e+00  0.0000000000000000e+00 0.0000000000000000e+00 0.0000000000000000e+00  0.0000000000000000e+00 0.0000000000000000e+00 0.0000000000000000e+00  0.0000000000000000e+00 0.0000000000000000e+00 0.0000000000000000e+00  0.0000000000000000e+00 0.0000000000000000e+00 0.0000000000000000e+00  2.2171719013833910e+00 -2.7603764037649270e-01 0.0000000000000000e+00  1.8342822151003897e+00 2.6110936898271590e-02 0.0000000000000000e+00  1.9122580864339897e-01 -1.1174537968678011e-01 0.0000000000000000e+00  1.9387312230123835e-01 4.5983767515915284e-02 0.0000000000000000e+00  1.4977328552750053e+00 2.4856958072224264e-01 0.0000000000000000e+00  1.1452193941127444e+00 3.8257519851136251e-01 0.0000000000000000e+00  2.2153226799280130e+00 1.0753076952557471e-01 0.0000000000000000e+00  1.1263536347654388e+00 -4.5149688604435856e-01 0.0000000000000000e+00  7.4718893348249930e-03 -4.4049951500070628e-02 0.0000000000000000e+00  5.9573303897965679e-01 3.3333655900261094e-01 0.0000000000000000e+00  7.7761330154566299e-01 -5.5596280480240567e-01 0.0000000000000000e+00  1.1211727256495582e-01 5.8296353695328075e-02 0.0000000000000000e+00  1.6455720143368649e-01 -1.1472281132144314e-01 0.0000000000000000e+00  1.7148673506463910e+00 1.3898536961891236e-01 0.0000000000000000e+00  1.5900441718062337e+00 4.7858730125936201e-03 0.0000000000000000e+00  2.2870730931155106e-01 2.6289010600273471e-01 0.0000000000000000e+00  1.8370708438892478e+00 -4.7782439134038796e-01 0.0000000000000000e+00  1.8439059355934133e+00 -6.4235817192090183e-01 0.0000000000000000e+00  2.0780695861417207e+00 -7.2173344591562949e-01 0.0000000000000000e+00  2.1194464933183719e+00 -2.8235255671490384e-01 0.0000000000000000e+00  2.1654401832839720e-01 4.1111063829336869e-01 0.0000000000000000e+00  1.3189009733518990e+00 2.4158665452997632e-01 0.0000000000000000e+00  2.8468881573642014e-02 -2.9322826843736396e-02 0.0000000000000000e+00  1.7439048085931970e+00 5.6551669049445835e-02 0.0000000000000000e+00  1.4090126401247074e+00 -2.1992313149381768e-01 0.0000000000000000e+00  2.1097834748677298e+00 1.3458821160751022e-01 0.0000000000000000e+00  1.9466056289425286e+00 -3.4719201976687111e-02 0.0000000000000000e+00  1.8358521984033689e+00 6.7916566954504057e-02 0.0000000000000000e+00  2.9447006408331666e-01 1.4978073329377536e-01 0.0000000000000000e+00  4.5723876238112604e-01 -3.1192950241005180e-01 0.0000000000000000e+00  9.1892505845862416e-01 4.6552799980315529e-01 0.0000000000000000e+00  1.5678053854131302e+00 1.3433683450321771e-01 0.0000000000000000e+00  7.9501872958307115e-02 -9.9543318507255646e-02 0.0000000000000000e+00  1.2845998017787779e+00 3.5001562940299036e-01 0.0000000000000000e+00  1.4703380757192996e+00 2.6679672901429236e-01 0.0000000000000000e+00  2.7038944352540628e-01 9.8314496400674148e-02 0.0000000000000000e+00  3.6919918638070243e-01 -2.4814613282594386e-01 0.0000000000000000e+00  6.6905718195733432e-02 -2.6730726864300145e-02 0.0000000000000000e+00  6.7952298846912979e-02 -2.6526822499328750e-05 0.0000000000000000e+00  9.3895068487631517e-01 -5.6586148414729909e-01 0.0000000000000000e+00  2.2308444910173120e+00 7.5128094425459910e-02 0.0000000000000000e+00  1.2659882481826568e+00 2.9390767814356422e-01 0.0000000000000000e+00  2.1420881093697690e+00 8.8825562558593751e-02 0.0000000000000000e+00  2.1843850378153258e+00 1.0453728333848084e-01 0.0000000000000000e+00  1.1679660912149952e+00 -4.4638500957761346e-01 0.0000000000000000e+00  2.7590208844032538e-03 -2.1832528146488912e-02 0.0000000000000000e+00  6.3543742317386631e-01 3.4061533787711462e-01 0.0000000000000000e+00  8.0582828301601050e-01 -5.9639693771930147e-01 0.0000000000000000e+00  1.4407710981445532e-01 2.1200836110152574e-01 0.0000000000000000e+00  2.0912613608976205e+00 -3.2888426483432104e-01 0.0000000000000000e+00  2.3711939709759078e-01 3.4518860208825508e-01 0.0000000000000000e+00  1.9190387809544243e+00 -3.7787389449617553e-01 0.0000000000000000e+00  1.7361888934199443e+00 -3.8046051165790995e-01 0.0000000000000000e+00  1.9545444593885772e+00 -7.3335885976430115e-01 0.0000000000000000e+00  1.8493250926253493e+00 -5.5418615165414320e-01 0.0000000000000000e+00  2.1421290596224307e+00 -6.8988770369139418e-01 0.0000000000000000e+00  2.1740126410308114e+00 -2.6151093336633990e-01 0.0000000000000000e+00  1.7729069007846516e+00 -6.1531031492381638e-01 0.0000000000000000e+00  2.1477447518920214e+00 -3.2774807210028767e-01 0.0000000000000000e+00  1.8134388887616304e+00 -7.2059402582686183e-01 0.0000000000000000e+00  2.1058433443021456e+00 -7.8248946864943225e-01 0.0000000000000000e+00  2.0551429405710273e+00 -6.5739102940478766e-01 0.0000000000000000e+00  1.8286381104195076e-01 3.9312509726630990e-01 0.0000000000000000e+00  2.3314001540526988e-01 4.4034916933145662e-01 0.0000000000000000e+00  1.9341678106566104e-01 4.3376891873029000e-01 0.0000000000000000e+00  1.3010013647844505e+00 2.5218306215863284e-01 0.0000000000000000e+00  1.3256730168844886e+00 2.3699028297725985e-01 0.0000000000000000e+00  1.3217380630054545e+00 2.4303711908672071e-01 0.0000000000000000e+00  1.6088260971042367e+00 -1.5192074951602202e-01 0.0000000000000000e+00  1.9894430434819985e+00 1.3838185957731902e-01 0.0000000000000000e+00  4.2910495486631763e-02 -2.2821742490236486e-02 0.0000000000000000e+00  2.1264940494644624e+00 3.7635160394525614e-02 0.0000000000000000e+00  1.7881768280832791e-01 -1.1218200175469011e-01 0.0000000000000000e+00  1.5228068600570137e+00 -6.7781902389881660e-02 0.0000000000000000e+00  2.2242466252293478e+00 1.3043401136936197e-01 0.0000000000000000e+00  2.0609244390571773e+00 7.8251820769423344e-02 0.0000000000000000e+00  4.7400098406863023e-01 2.9487136059729763e-01 0.0000000000000000e+00  3.8522969238256699e-03 -2.4057153794704800e-02 0.0000000000000000e+00  4.0231808495745830e-01 1.8207416817943861e-01 0.0000000000000000e+00  3.8980297605986369e-02 -2.0176374814037609e-02 0.0000000000000000e+00  1.7415474358198284e+00 3.8771064109823103e-02 0.0000000000000000e+00  1.2071538342993207e+00 -3.6295979762380248e-01 0.0000000000000000e+00  1.1596654936765899e-01 4.0749758664330130e-02 0.0000000000000000e+00  9.9653526497784439e-01 3.9757470291062108e-01 0.0000000000000000e+00  1.8135663726184743e+00 1.4399873598893823e-01 0.0000000000000000e+00  1.0150976688902551e+00 4.6564321679522397e-01 0.0000000000000000e+00  6.2809532586055394e-01 -4.1798337010049308e-01 0.0000000000000000e+00  1.7205301164739986e+00 1.5758501599574506e-01 0.0000000000000000e+00  1.3752561983969318e+00 2.8256130304714761e-01 0.0000000000000000e+00  7.3870687634209264e-01 4.5753676844854407e-01 0.0000000000000000e+00  -1.0306783576547887e-03 -4.2526770775559435e-02 0.0000000000000000e+00  1.6392483359720400e+00 4.8200964054946775e-02 0.0000000000000000e+00  1.9503610778734048e+00 -1.7708522963262763e-01 0.0000000000000000e+00  7.8650635376425387e-02 2.2492941899192230e-02 0.0000000000000000e+00  6.5636405112520846e-01 -4.9081707862964213e-01 0.0000000000000000e+00  9.3997069390221133e-01 -5.5298293667367882e-01 0.0000000000000000e+00  2.1023982549543065e+00 -2.7108749634555319e-02 0.0000000000000000e+00  2.1756903402092698e-01 1.2119927090011112e-01 0.0000000000000000e+00  1.3759033588501296e-01 -2.2090125719137282e-01 0.0000000000000000e+00  2.1922664199758590e+00 1.1572324728782302e-01 0.0000000000000000e+00  1.3183479835492968e+00 3.1004605740714447e-01 0.0000000000000000e+00  2.7630185918848141e-02 -1.1032558603761709e-01 0.0000000000000000e+00  1.7657279189483879e-01 -1.3023894847374734e-01 0.0000000000000000e+00  1.3994535548640681e+00 2.9785507360559227e-01 0.0000000000000000e+00  1.4262621624602467e+00 2.5347678696558373e-01 0.0000000000000000e+00  1.5731258923022797e+00 2.3308226969908902e-01 0.0000000000000000e+00  9.3128136006995155e-01 -5.7941955760862385e-01 0.0000000000000000e+00  1.9751054737638352e+00 8.5107472108809090e-02 0.0000000000000000e+00  8.3224414644874845e-01 -5.8714451870554418e-01 0.0000000000000000e+00  3.2043946538555612e-01 1.8085149884727192e-01 0.0000000000000000e+00  3.7492886954978388e-01 -3.3356307584080203e-01 0.0000000000000000e+00  1.3054609170318683e+00 2.5422965154213611e-01 0.0000000000000000e+00  1.2500710093570371e+00 -4.4455032495720864e-01 0.0000000000000000e+00  7.4990841732494118e-01 4.0007559282037708e-01 0.0000000000000000e+00  2.1766777010369829e+00 -1.8238698722506264e-01 0.0000000000000000e+00  1.7291335262017551e-01