<?xml version="1.0"?>
<VTKFile type="UnstructuredGrid"  version="0.1"  >
<UnstructuredGrid>
<Piece  NumberOfPoints="2868" NumberOfCells="5400">
<Points>
<DataArray  type="Float64"  NumberOfComponents="3"  format="ascii">0.534923 0.326073 0  0.510642 0.314196 0  0.466125 0.293082 0  0.436448 0.281205 0  0.409468 0.275927 0  0.368998 0.270648 0  0.35281 0.275927 0  0.381139 0.302319 0  0.405421 0.326073 0  0.410817 0.33531 0  0.408119 0.349826 0  0.400025 0.357744 0  0.375743 0.368301 0  0.329878 0.392055 0  0.297502 0.432963 0  0.282663 0.476511 0  0.285361 0.524018 0  0.298851 0.572845 0  0.317737 0.6045160000000001 0  0.337972 0.6361869999999999 0  0.360904 0.674457 0  0.368998 0.69953 0  0.359555 0.7219640000000001 0  0.360904 0.757594 0  0.370347 0.766831 0  0.381139 0.762872 0  0.390582 0.741758 0  0.404072 0.720644 0  0.424307 0.707448 0  0.447239 0.702169 0  0.480964 0.704808 0  0.479615 0.6889729999999999 0  0.468823 0.675776 0  0.447239 0.6691780000000001 0  0.428354 0.6691780000000001 0  0.410817 0.6639 0  0.404072 0.653343 0  0.395978 0.628269 0  0.387884 0.59132 0  0.389233 0.576804 0  0.397327 0.557009 0  0.410817 0.547772 0  0.424307 0.546452 0  0.437797 0.55305 0  0.44589 0.5662469999999999 0  0.441843 0.582082 0  0.439145 0.5979179999999999 0  0.449937 0.609795 0  0.468823 0.603196 0  0.479615 0.59 0  0.489058 0.570205 0  0.494454 0.546452 0  0.505246 0.522699 0  0.522783 0.509502 0  0.55246 0.494986 0  0.586185 0.484429 0  0.615863 0.48047 0  0.64554 0.473872 0  0.6671240000000001 0.461995 0  0.683312 0.451438 0  0.696802 0.435603 0  0.703547 0.417128 0  0.7116400000000001 0.393374 0  0.7183850000000001 0.37226 0  0.7251300000000001 0.364342 0  0.739969 0.353785 0  0.7453650000000001 0.344548 0  0.7453650000000001 0.327393 0  0.737271 0.318155 0  0.7183850000000001 0.316835 0  0.7008490000000001 0.319475 0  0.677916 0.318155 0  0.650936 0.316835 0  0.610467 0.318155 0  0.57944 0.324753 0  0.559205 0.328712 0  0.5389699999999999 0.326073 0  1 1 0  1 0 0  0 0 0  0 1 0  0.532238 0.32476 0  0.528748 0.323052 0  0.52421 0.320833 0  0.518311 0.317947 0  0.503447 0.310783 0  0.494093 0.306347 0  0.481933 0.30058 0  0.452151 0.28749 0  0.392327 0.273691 0  0.379141 0.271971 0  0.360474 0.283066 0  0.369797 0.291752 0  0.391424 0.31238 0  0.399335 0.32012 0  0.40958 0.341964 0  0.393939 0.36039 0  0.386028 0.36383 0  0.364248 0.374254 0  0.349304 0.381994 0  0.315801 0.409841 0  0.292986 0.551616 0  0.350934 0.657818 0  0.360127 0.737055 0  0.360566 0.748664 0  0.385245 0.753692 0  0.396447 0.732578 0  0.466301 0.703661 0  0.459439 0.672908 0  0.418442 0.666195 0  0.400553 0.642441 0  0.39255 0.612619 0  0.389913 0.60058 0  0.392752 0.568197 0  0.444131 0.573132 0  0.458149 0.606926 0  0.5005540000000001 0.533026 0  0.571522 0.489019 0  0.632637 0.476741 0  0.689177 0.444553 0  0.708121 0.403702 0  0.715453 0.38144 0  0.732406 0.359166 0  0.7453650000000001 0.337089 0  0.72906 0.317581 0  0.629879 0.317522 0  0.59293 0.321884 0  0.568003 0.326991 0  0.55202 0.327775 0  0.546493 0.327054 0  0.542241 0.326499 0  1 0.9 0  1 0.8 0  1 0.7 0  1 0.6 0  1 0.5 0  1 0.4 0  1 0.3 0  1 0.2 0  1 0.1 0  0.9 0 0  0.8 0 0  0.7 0 0  0.6 0 0  0.5 0 0  0.4 0 0  0.3 0 0  0.2 0 0  0.1 0 0  0.1 1 0  0.2 1 0  0.3 1 0  0.4 1 0  0.5 1 0  0.6 1 0  0.7 1 0  0.8 1 0  0.9 1 0  0 0.1 0  0 0.2 0  0 0.3 0  0 0.4 0  0 0.5 0  0 0.6 0  0 0.7 0  0 0.8 0  0 0.9 0  0.535686 0.5031910000000001 0  0.753987 0.733359 0  0.167145 0.741436 0  0.173378 0.257204 0  0.733497 0.159862 0  0.554096 0.15788 0  0.849187 0.479053 0  0.488793 0.838452 0  0.138507 0.5592 0  0.30686 0.154944 0  0.348904 0.890523 0  0.058006 0.065099 0  0.06984899999999999 0.937917 0  0.93633 0.939704 0  0.934625 0.053613 0  0.343397 0.333452 0  0.473272 0.639943 0  0.433266 0.638072 0  0.415174 0.58269 0  0.533435 0.545042 0  0.390848 0.340652 0  0.53655 0.320242 0  0.127966 0.393775 0  0.83861 0.850455 0  0.635242 0.8551299999999999 0  0.852158 0.633441 0  0.653427 0.626848 0  0.861226 0.24292 0  0.166128 0.12976 0  0.216875 0.8698709999999999 0  0.458305 0.11179 0  0.84446 0.101633 0  0.202024 0.642528 0  0.644825 0.115855 0  0.671342 0.218358 0  0.251354 0.286186 0  0.262388 0.75153 0  0.063044 0.751571 0  0.068189 0.242962 0  0.435781 0.9053949999999999 0  0.934144 0.451133 0  0.568393 0.237622 0  0.814984 0.395506 0  0.752951 0.517227 0  0.456254 0.780699 0  0.073352 0.531116 0  0.337731 0.206071 0  0.363213 0.960371 0  0.330742 0.363592 0  0.516613 0.55705 0  0.369057 0.332992 0  0.500926 0.617309 0  0.498004 0.665534 0  0.412142 0.61178 0  0.454233 0.6366039999999999 0  0.422782 0.567496 0  0.541193 0.5214800000000001 0  0.439761 0.65557 0  0.5163 0.533672 0  0.414775 0.64562 0  0.40073 0.576135 0  0.430362 0.5880339999999999 0  0.385432 0.351492 0  0.400298 0.335397 0  0.398325 0.348194 0  0.528702 0.314885 0  0.540814 0.322334 0  0.534477 0.322953 0  0.619095 0.743583 0  0.885162 0.737972 0  0.08076 0.668849 0  0.90734 0.36634 0  0.09468699999999999 0.868937 0  0.759838 0.912152 0  0.901518 0.540898 0  0.747285 0.607479 0  0.229182 0.071641 0  0.06915399999999999 0.450091 0  0.244775 0.203309 0  0.076534 0.331755 0  0.897847 0.167826 0  0.578909 0.911415 0  0.07713299999999999 0.146341 0  0.477215 0.203448 0  0.922631 0.869341 0  0.517415 0.074785 0  0.297026 0.827793 0  0.7832710000000001 0.246505 0  0.74519 0.061079 0  0.36033 0.069068 0  0.210313 0.475228 0  0.859426 0.928758 0  0.5745479999999999 0.609182 0  0.243069 0.383398 0  0.283099 0.934598 0  0.417416 0.843141 0  0.643942 0.553164 0  0.112687 0.079336 0  0.281357 0.658386 0  0.765043 0.436177 0  0.611361 0.198486 0  0.234496 0.58911 0  0.206479 0.702638 0  0.679608 0.155818 0  0.62682 0.259978 0  0.690538 0.264164 0  0.448938 0.956308 0  0.808154 0.328403 0  0.379583 0.91913 0  0.308083 0.297769 0  0.312358 0.730249 0  0.563101 0.278576 0  0.435597 0.746198 0  0.385475 0.225229 0  0.572248 0.518034 0  0.357864 0.35422 0  0.497647 0.641694 0  0.458101 0.655768 0  0.360474 0.310727 0  0.467038 0.620139 0  0.47798 0.659909 0  0.41102 0.628072 0  0.48324 0.609015 0  0.427544 0.617941 0  0.388633 0.328253 0  0.405336 0.599404 0  0.408351 0.565178 0  0.42395 0.600985 0  0.431562 0.576523 0  0.424905 0.6551979999999999 0  0.398064 0.58782 0  0.427739 0.557934 0  0.5192909999999999 0.303443 0  0.53142 0.320293 0  0.5449000000000001 0.323642 0  0.537166 0.323513 0  0.153974 0.920841 0  0.9181859999999999 0.67343 0  0.759946 0.820588 0  0.5375259999999999 0.783091 0  0.816532 0.545843 0  0.813991 0.178083 0  0.836774 0.702023 0  0.149815 0.318856 0  0.662287 0.923338 0  0.680146 0.791192 0  0.708961 0.663172 0  0.9372779999999999 0.287318 0  0.574622 0.6881660000000001 0  0.5894740000000001 0.076262 0  0.502822 0.926683 0  0.222269 0.811068 0  0.380457 0.164786 0  0.15321 0.684154 0  0.458063 0.051413 0  0.161702 0.056026 0  0.199351 0.198818 0  0.298946 0.09553200000000001 0  0.902465 0.795949 0  0.121139 0.791477 0  0.906269 0.112287 0  0.056109 0.822332 0  0.512172 0.13237 0  0.940964 0.741805 0  0.888887 0.408777 0  0.354543 0.825964 0  0.808736 0.068638 0  0.068507 0.394071 0  0.719105 0.563843 0  0.247287 0.149664 0  0.293062 0.237128 0  0.240524 0.434997 0  0.141255 0.623289 0  0.945202 0.160621 0  0.502914 0.247629 0  0.144669 0.480811 0  0.665025 0.060817 0  0.728047 0.224344 0  0.861995 0.313312 0  0.200068 0.534235 0  0.253262 0.965623 0  0.893804 0.49307 0  0.604391 0.572456 0  0.947088 0.345347 0  0.439372 0.227307 0  0.629847 0.159823 0  0.273405 0.880181 0  0.302744 0.776823 0  0.781502 0.295365 0  0.275342 0.349602 0  0.7283849999999999 0.472798 0  0.229136 0.246478 0  0.807794 0.480346 0  0.709476 0.112786 0  0.275506 0.694991 0  0.771674 0.394419 0  0.449715 0.861802 0  0.419159 0.799696 0  0.674851 0.503139 0  0.280443 0.61016 0  0.572443 0.192538 0  0.393113 0.87525 0  0.405555 0.948428 0  0.330942 0.934103 0  0.540509 0.597101 0  0.312763 0.6689310000000001 0  0.254368 0.540179 0  0.595265 0.25915 0  0.606679 0.234099 0  0.657131 0.279138 0  0.722458 0.279478 0  0.333 0.308056 0  0.351529 0.246142 0  0.455714 0.7257940000000001 0  0.585239 0.295143 0  0.340062 0.72492 0  0.545593 0.293773 0  0.555449 0.545426 0  0.414311 0.737314 0  0.590854 0.502323 0  0.350507 0.368444 0  0.484423 0.625665 0  0.483899 0.674542 0  0.378137 0.317274 0  0.446416 0.646404 0  0.373532 0.347654 0  0.446876 0.619769 0  0.466106 0.666068 0  0.437545 0.609254 0  0.434988 0.565726 0  0.41462 0.656829 0  0.418803 0.556961 0  0.398425 0.327446 0  0.517803 0.310421 0  0.549516 0.322918 0  0.57701 0.842889 0  0.8291269999999999 0.773906 0  0.643235 0.684732 0  0.134281 0.207734 0  0.865997 0.055966 0  0.680959 0.723345 0  0.165229 0.8415550000000001 0  0.54558 0.959672 0  0.783726 0.656439 0  0.913315 0.595533 0  0.699439 0.860667 0  0.785839 0.125076 0  0.551673 0.037713 0  0.9200970000000001 0.223214 0  0.206406 0.299726 0  0.087064 0.596401 0  0.935644 0.394252 0  0.964557 0.252582 0  0.230124 0.928346 0  0.120579 0.271764 0  0.8572149999999999 0.524082 0  0.7670979999999999 0.5551469999999999 0  0.936094 0.507131 0  0.804064 0.59585 0  0.700565 0.608273 0  0.429773 0.174231 0  0.117746 0.727333 0  0.5389620000000001 0.730231 0  0.862761 0.359173 0  0.821444 0.284046 0  0.193552 0.35818 0  0.234923 0.505555 0  0.193209 0.421217 0  0.220144 0.755896 0  0.594015 0.131642 0  0.283813 0.195855 0  0.517519 0.213961 0  0.553509 0.639116 0  0.280391 0.378018 0  0.852183 0.436817 0  0.746983 0.197173 0  0.821806 0.221318 0  0.449853 0.828453 0  0.883758 0.453926 0  0.183484 0.589542 0  0.348384 0.129314 0  0.255254 0.838525 0  0.504849 0.798516 0  0.320344 0.863432 0  0.611669 0.525425 0  0.265864 0.804962 0  0.72056 0.521442 0  0.613372 0.6101220000000001 0  0.481262 0.881068 0  0.655778 0.191988 0  0.701921 0.196918 0  0.5658260000000001 0.5731810000000001 0  0.46914 0.240927 0  0.343219 0.173284 0  0.888786 0.278502 0  0.244113 0.6750930000000001 0  0.739546 0.417914 0  0.784023 0.355942 0  0.326805 0.265549 0  0.248616 0.6
[...]
<PointData  Vectors="f_21"> 
<DataArray  type="Float64"  Name="f_21"  NumberOfComponents="3" format="ascii">1.7537760284571169e-01 -4.4762281552628735e-02 0.0000000000000000e+00  1.6330566762958484e-01 -3.6388240033601436e-02 0.0000000000000000e+00  1.2709373925474546e-01 -2.0664526304125231e-02 0.0000000000000000e+00  9.7583489503362153e-02 -1.3193472808111036e-02 0.0000000000000000e+00  7.2963888884914174e-02 -9.8087289138691081e-03 0.0000000000000000e+00  3.7234989506131425e-02 -3.4736591036303747e-03 0.0000000000000000e+00  1.9654071511773091e-02 -2.0081134633654209e-03 0.0000000000000000e+00  4.2402412233029270e-03 2.5113037267302579e-03 0.0000000000000000e+00  1.5841760899163678e-03 2.2572403617666932e-03 0.0000000000000000e+00  1.1044236811311322e-03 2.4107976228123426e-03 0.0000000000000000e+00  3.7870808673021487e-04 2.2223324421973604e-03 0.0000000000000000e+00  1.0993643628001835e-05 1.8207920960701309e-03 0.0000000000000000e+00  -3.6525051608493527e-04 6.9738590951066786e-04 0.0000000000000000e+00  -1.9156239158607947e-04 -5.6723756595709451e-04 0.0000000000000000e+00  1.5384894126936235e-05 -2.5940391834256129e-04 0.0000000000000000e+00  3.6229427250976180e-06 -5.9567125335541507e-05 0.0000000000000000e+00  -1.3183562587973495e-06 1.1947241480428882e-05 0.0000000000000000e+00  8.5969629407060382e-06 1.0932428837721239e-04 0.0000000000000000e+00  -8.7151780916104713e-06 2.7337698804892196e-04 0.0000000000000000e+00  -1.0278163297201080e-04 4.4376959520120928e-04 0.0000000000000000e+00  -1.1654913601784571e-04 -4.7754238417702028e-05 0.0000000000000000e+00  8.5322180516135093e-04 -9.9492380461151022e-04 0.0000000000000000e+00  3.0843022467348371e-03 -1.3161188318936519e-03 0.0000000000000000e+00  1.9834190139330278e-02 -2.9468786435101479e-03 0.0000000000000000e+00  3.9337376368438613e-02 -6.0400047407450086e-03 0.0000000000000000e+00  5.7913847184741449e-02 -5.1174004082479210e-03 0.0000000000000000e+00  8.6148058260529597e-02 -2.6725524018924043e-03 0.0000000000000000e+00  9.9201497780546960e-02 3.8535801606421846e-03 0.0000000000000000e+00  1.0385216080015355e-01 9.3558302717303074e-03 0.0000000000000000e+00  1.0600222118873548e-01 1.1015670467433748e-02 0.0000000000000000e+00  1.2078332910676171e-01 -3.3306817785829093e-03 0.0000000000000000e+00  1.3492658243925057e-01 -1.3343910864430512e-02 0.0000000000000000e+00  1.3837758406666226e-01 -2.1073435849192402e-02 0.0000000000000000e+00  1.4197881823773517e-01 -2.0662373719223491e-02 0.0000000000000000e+00  1.4688680749914415e-01 -7.3687088417815350e-03 0.0000000000000000e+00  1.4459229904388601e-01 9.6935336741661177e-03 0.0000000000000000e+00  1.3628225014795628e-01 1.7096068378396938e-02 0.0000000000000000e+00  1.1284057741047167e-01 3.3657392835581543e-02 0.0000000000000000e+00  5.7697141568109921e-02 5.5014226430840751e-02 0.0000000000000000e+00  3.4152813970894105e-02 5.3581804312051014e-02 0.0000000000000000e+00  3.3118354284875527e-03 4.1441295719555599e-02 0.0000000000000000e+00  -1.0662180025972077e-02 2.1379747286568520e-02 0.0000000000000000e+00  -1.2769557773078208e-02 1.4444905023277179e-03 0.0000000000000000e+00  -3.1583651152138495e-03 -1.8923471038664218e-02 0.0000000000000000e+00  1.7229385564516135e-02 -3.2042876230574814e-02 0.0000000000000000e+00  4.3793622493398854e-02 -2.6355958343745569e-02 0.0000000000000000e+00  7.7179386853907420e-02 -1.9308542928992492e-02 0.0000000000000000e+00  1.1884311437049308e-01 -2.5472394854656473e-02 0.0000000000000000e+00  1.5517920380064604e-01 -2.7506715660372851e-02 0.0000000000000000e+00  1.8553822926995783e-01 -2.6583113967154095e-02 0.0000000000000000e+00  2.1816220115852736e-01 -2.4535812416362119e-02 0.0000000000000000e+00  2.4741614001898762e-01 -2.1967702231649854e-02 0.0000000000000000e+00  2.7123873202194154e-01 -1.3371210928231264e-02 0.0000000000000000e+00  2.8336662147437425e-01 -5.5751986312844396e-04 0.0000000000000000e+00  2.9774973361451101e-01 1.4308245861209479e-02 0.0000000000000000e+00  3.1204176134209244e-01 2.3153492747307200e-02 0.0000000000000000e+00  3.2736041487987044e-01 2.4990565139937769e-02 0.0000000000000000e+00  3.5260411225667693e-01 2.2210737008477133e-02 0.0000000000000000e+00  3.7975746904310675e-01 2.2420973077733858e-02 0.0000000000000000e+00  4.0098240366700050e-01 2.3592098759717902e-02 0.0000000000000000e+00  4.2328021274894934e-01 2.7213224825849230e-02 0.0000000000000000e+00  4.3889335403283153e-01 3.1550790319785568e-02 0.0000000000000000e+00  4.4638608963278792e-01 3.9449856050500318e-02 0.0000000000000000e+00  4.4444243500059860e-01 4.4141047555272997e-02 0.0000000000000000e+00  4.4255199351388014e-01 4.4905478526922976e-02 0.0000000000000000e+00  4.3589323969678534e-01 4.5694152456373267e-02 0.0000000000000000e+00  4.2436164332105925e-01 4.4814328124554888e-02 0.0000000000000000e+00  3.8749703728913187e-01 4.0114233183002702e-02 0.0000000000000000e+00  3.5079513594645717e-01 3.3194883825112244e-02 0.0000000000000000e+00  3.0777234835517031e-01 1.2781661920460792e-02 0.0000000000000000e+00  2.8325182744425487e-01 -2.2496237423953003e-03 0.0000000000000000e+00  2.6256996209435546e-01 -1.4984337703211786e-02 0.0000000000000000e+00  2.3822229911052065e-01 -2.6577754097549148e-02 0.0000000000000000e+00  2.0502066711476863e-01 -3.9905175661143634e-02 0.0000000000000000e+00  1.8604831704353933e-01 -4.7220126185899255e-02 0.0000000000000000e+00  1.8028469748801479e-01 -4.8559376905169344e-02 0.0000000000000000e+00  1.7593479048730915e-01 -4.5713776734610426e-02 0.0000000000000000e+00  5.7853210558392021e-01 -1.6235030494785177e-01 0.0000000000000000e+00  5.8050716861382090e-01 1.5650292966970253e-01 0.0000000000000000e+00  0.0000000000000000e+00 0.0000000000000000e+00 0.0000000000000000e+00  0.0000000000000000e+00 0.0000000000000000e+00 0.0000000000000000e+00  1.7459097241353835e-01 -4.3908431632838342e-02 0.0000000000000000e+00  1.7322354025571912e-01 -4.2750304641382152e-02 0.0000000000000000e+00  1.7110440320689674e-01 -4.1212055087191647e-02 0.0000000000000000e+00  1.6797949704733328e-01 -3.9126875794169763e-02 0.0000000000000000e+00  1.5851201625865066e-01 -3.3823584338869742e-02 0.0000000000000000e+00  1.5163660833300951e-01 -3.0437476774443743e-02 0.0000000000000000e+00  1.4187851697783965e-01 -2.6081774547474394e-02 0.0000000000000000e+00  1.1388525541241840e-01 -1.6666804618641420e-02 0.0000000000000000e+00  5.9006901995377871e-02 -7.8997054539313872e-03 0.0000000000000000e+00  4.8020636271258951e-02 -5.6529548062136323e-03 0.0000000000000000e+00  1.1829551756863683e-02 1.7095244743080937e-03 0.0000000000000000e+00  7.1642478493213653e-03 2.5352918426804760e-03 0.0000000000000000e+00  2.6545899555693404e-03 2.2390641878474223e-03 0.0000000000000000e+00  1.9650554442774883e-03 2.1797113055871116e-03 0.0000000000000000e+00  7.7170355704995889e-04 2.3229010778378985e-03 0.0000000000000000e+00  -1.0558723621052204e-04 1.5339286722945845e-03 0.0000000000000000e+00  -2.4260770495743318e-04 1.1748259844155159e-03 0.0000000000000000e+00  -4.3852397554068807e-04 1.8250360314165276e-04 0.0000000000000000e+00  -3.7551938167470377e-04 -2.8941859854130452e-04 0.0000000000000000e+00  -4.3671334744471423e-05 -4.8071249025839990e-04 0.0000000000000000e+00  2.5589360868670954e-06 5.2379879564675787e-05 0.0000000000000000e+00  -2.0719137464193958e-04 3.4466197342299663e-04 0.0000000000000000e+00  6.7799431172833862e-03 -2.4936969835730790e-03 0.0000000000000000e+00  1.2117742882964041e-02 -3.4237829219039857e-03 0.0000000000000000e+00  7.4181673403203030e-02 -5.2832522800479653e-03 0.0000000000000000e+00  9.2916117574623536e-02 4.4038487185457100e-04 0.0000000000000000e+00  1.1043926354059598e-01 7.4803215868035873e-03 0.0000000000000000e+00  1.3966920383429157e-01 -2.2927807450213781e-02 0.0000000000000000e+00  1.4600661452042246e-01 2.0632962211264666e-03 0.0000000000000000e+00  1.2740833917901223e-01 2.3175923609858706e-02 0.0000000000000000e+00  9.2127523879792186e-02 4.3520728969529798e-02 0.0000000000000000e+00  7.3087668999594943e-02 5.0575896214490101e-02 0.0000000000000000e+00  2.0532623706711533e-02 4.8309446941378099e-02 0.0000000000000000e+00  2.8370277879937365e-02 -2.9548325121056217e-02 0.0000000000000000e+00  1.3563381635766619e-01 -2.7104462750302646e-02 0.0000000000000000e+00  2.6145211496290260e-01 -1.7220024004246447e-02 0.0000000000000000e+00  3.0578128572361246e-01 2.0275231770363389e-02 0.0000000000000000e+00  3.4044841774529661e-01 2.4020680469327635e-02 0.0000000000000000e+00  4.1170823016658081e-01 2.4553702449412344e-02 0.0000000000000000e+00  4.4467830091918903e-01 3.6124767299232245e-02 0.0000000000000000e+00  4.4595015454309822e-01 4.2609745238160752e-02 0.0000000000000000e+00  4.3995484438543858e-01 4.5460502690733554e-02 0.0000000000000000e+00  4.1155053244389994e-01 4.5827690365473704e-02 0.0000000000000000e+00  3.2873449240756059e-01 2.2742515154719631e-02 0.0000000000000000e+00  2.2014202440605560e-01 -3.4561435360449172e-02 0.0000000000000000e+00  1.9262144977025866e-01 -4.4616218546107068e-02 0.0000000000000000e+00  1.8216965792058668e-01 -4.8448902734380510e-02 0.0000000000000000e+00  1.7899896676914520e-01 -4.7958956100624908e-02 0.0000000000000000e+00  1.7772705573910513e-01 -4.7138218992830785e-02 0.0000000000000000e+00  1.7671439069212180e-01 -4.6380145287393516e-02 0.0000000000000000e+00  5.5957410444326694e-01 -1.3098759806226165e-01 0.0000000000000000e+00  5.4135839678756559e-01 -9.6655854890510762e-02 0.0000000000000000e+00  5.3319548050338228e-01 -5.4866929243251088e-02 0.0000000000000000e+00  5.4353993066494499e-01 -1.1040475822993631e-02 0.0000000000000000e+00  5.6911114020476117e-01 2.1501808249833852e-02 0.0000000000000000e+00  5.8329260010724704e-01 3.1336040008755270e-02 0.0000000000000000e+00  5.7054940140495936e-01 4.5165163991804175e-02 0.0000000000000000e+00  5.5976329486262033e-01 7.9786694688445625e-02 0.0000000000000000e+00  5.6542967278002565e-01 1.2072696738069769e-01 0.0000000000000000e+00  4.8784650652788214e-01 1.3779309873382559e-01 0.0000000000000000e+00  3.9619115210730832e-01 1.1744656837333721e-01 0.0000000000000000e+00  3.0707860408285348e-01 9.5262168075185491e-02 0.0000000000000000e+00  2.1671708813509849e-01 6.6727766345667308e-02 0.0000000000000000e+00  1.2549374094130797e-01 3.7903978551681691e-02 0.0000000000000000e+00  5.6426561650221287e-02 1.7809478433151473e-02 0.0000000000000000e+00  1.4841923727031638e-02 4.7536984633464877e-03 0.0000000000000000e+00  1.9774695203281724e-03 6.5516933552188170e-04 0.0000000000000000e+00  9.9780897176239317e-05 3.0166323323162936e-05 0.0000000000000000e+00  8.4715998143124446e-05 -2.8526081686610785e-05 0.0000000000000000e+00  1.5801587782384341e-03 -4.9210988307810252e-04 0.0000000000000000e+00  1.4902869747408563e-02 -4.7492026616098790e-03 0.0000000000000000e+00  5.7547831355951484e-02 -1.8649135430298631e-02 0.0000000000000000e+00  1.2792833855193891e-01 -4.1450189299744762e-02 0.0000000000000000e+00  2.1889877992040416e-01 -7.3057572388574799e-02 0.0000000000000000e+00  3.0768161170962560e-01 -1.0260220177045240e-01 0.0000000000000000e+00  3.9539247983216319e-01 -1.2527894342656848e-01 0.0000000000000000e+00  4.8556346241655068e-01 -1.4393066986374933e-01 0.0000000000000000e+00  0.0000000000000000e+00 0.0000000000000000e+00 0.0000000000000000e+00  0.0000000000000000e+00 0.0000000000000000e+00 0.0000000000000000e+00  0.0000000000000000e+00 0.0000000000000000e+00 0.0000000000000000e+00  0.0000000000000000e+00 0.0000000000000000e+00 0.0000000000000000e+00  0.0000000000000000e+00 0.0000000000000000e+00 0.0000000000000000e+00  0.0000000000000000e+00 0.0000000000000000e+00 0.0000000000000000e+00  0.0000000000000000e+00 0.0000000000000000e+00 0.0000000000000000e+00  0.0000000000000000e+00 0.0000000000000000e+00 0.0000000000000000e+00  0.0000000000000000e+00 0.0000000000000000e+00 0.0000000000000000e+00  2.8945880594322088e-01 6.6181779778414539e-03 0.0000000000000000e+00  3.0740103997669421e-01 -3.0739307056493241e-02 0.0000000000000000e+00  3.9964062881259497e-04 1.6993124466323708e-04 0.0000000000000000e+00  7.3397608534606312e-04 -2.0142689125497530e-04 0.0000000000000000e+00  3.1232790421398554e-01 5.2541395515337361e-02 0.0000000000000000e+00  1.4607164691183949e-01 3.2036014355449945e-03 0.0000000000000000e+00  4.6154963175674574e-01 2.5057842364314884e-02 0.0000000000000000e+00  9.7875800471846519e-02 -6.3810748700607366e-03 0.0000000000000000e+00  4.4266640400170291e-06 4.3300640672887057e-06 0.0000000000000000e+00  1.4941115276168085e-02 5.2414911874649420e-04 0.0000000000000000e+00  2.6810038841023544e-02 -2.4718527710076705e-03 0.0000000000000000e+00  2.8824699884517959e-05 4.2291306239837946e-06 0.0000000000000000e+00  3.3748213893980709e-05 -5.3617765297856408e-06 0.0000000000000000e+00  5.0773901045051295e-01 -1.3186696685088561e-01 0.0000000000000000e+00  5.1015249164706367e-01 1.2740266920597740e-01 0.0000000000000000e+00  8.9752359763272586e-04 -8.3798929065070340e-04 0.0000000000000000e+00  1.3942624934161396e-01 -2.4255747852062227e-02 0.0000000000000000e+00  1.2804064056264450e-01 -1.2699164666989237e-02 0.0000000000000000e+00  4.4844149268955580e-02 1.5372329773022414e-02 0.0000000000000000e+00  2.5324814714735649e-01 5.6989864729733103e-03 0.0000000000000000e+00  7.6727346900068482e-04 1.5713896473711529e-03 0.0000000000000000e+00  1.7353539898258713e-01 -4.4789606326756506e-02 0.0000000000000000e+00  3.0900056161458797e-05 -2.5201883724771314e-05 0.0000000000000000e+00  4.0041653631090729e-01 -8.6532178869734203e-02 0.0000000000000000e+00  2.1592427612128878e-01 -4.0354290955206144e-02 0.0000000000000000e+00  4.0296514130552402e-01 -1.2131695001467538e-02 0.0000000000000000e+00  2.5255676098951035e-01 7.4100822014128041e-03 0.0000000000000000e+00  4.3482552772166089e-01 5.1343621220755087e-02 0.0000000000000000e+00  7.4959538161357411e-04 5.3984632986476098e-05 0.0000000000000000e+00  2.5834985489047576e-03 -4.0803251500635803e-05 0.0000000000000000e+00  7.5158030316861385e-02 6.4331824835073001e-03 0.0000000000000000e+00  4.1950510830532645e-01 9.4116888476602073e-02 0.0000000000000000e+00  1.0626713254332475e-04 1.3111946916789902e-04 0.0000000000000000e+00  2.3279699813048479e-01 4.0209908339811640e-02 0.0000000000000000e+00  2.6011545863789332e-01 1.3937342135957395e-02 0.0000000000000000e+00  2.9701784034396202e-03 -1.5339326313119012e-03 0.0000000000000000e+00  3.6757325993911861e-03 1.8196218071262703e-03 0.0000000000000000e+00  2.3236835504527911e-05 6.2512777277837977e-06 0.0000000000000000e+00  4.6926275795691126e-05 -7.4968425374190395e-06 0.0000000000000000e+00  6.5919507751958081e-02 -9.2819885944794948e-03 0.0000000000000000e+00  5.2438587246860002e-01 2.2799003990736099e-02 0.0000000000000000e+00  1.7040506627128346e-01 -2.3995225426200209e-02 0.0000000000000000e+00  4.6275648700837874e-01 2.8694585003884217e-02 0.0000000000000000e+00  3.8332689301461043e-01 2.7703423528500214e-02 0.0000000000000000e+00  8.8001716289271614e-02 3.8836611118578551e-03 0.0000000000000000e+00  8.3540574711924982e-07 1.9715928158885790e-07 0.0000000000000000e+00  2.4449385373559077e-02 2.0429773131546287e-04 0.0000000000000000e+00  3.4226078841073641e-02 -7.7412922113241920e-03 0.0000000000000000e+00  -4.9009507390460123e-05 -7.6371555078610812e-04 0.0000000000000000e+00  2.3707945339842110e-01 -2.7779210122949411e-03 0.0000000000000000e+00  9.6873119188875762e-04 7.9527308883426816e-04 0.0000000000000000e+00  1.6230217847054887e-01 -1.1798831519458640e-02 0.0000000000000000e+00  1.4333316247620517e-01 -1.0826478697130132e-02 0.0000000000000000e+00  9.4214626308583377e-02 1.5985723241390186e-02 0.0000000000000000e+00  1.3268238200880250e-01 -2.6089161504153833e-02 0.0000000000000000e+00  1.9383959942057910e-02 3.9285655126953568e-03 0.0000000000000000e+00  2.7641289156222937e-01 9.1861752721492176e-03 0.0000000000000000e+00  1.3739606558981265e-01 -1.7235505882349532e-02 0.0000000000000000e+00  2.6164319973022021e-01 -4.3883911365594688e-03 0.0000000000000000e+00  1.3074486054014212e-01 6.6808058599593994e-03 0.0000000000000000e+00  3.3358916565035743e-02 3.6095153579188986e-02 0.0000000000000000e+00  5.5513769380196268e-02 -6.4949034439356788e-03 0.0000000000000000e+00  2.5705610690242422e-04 1.2095519017224553e-03 0.0000000000000000e+00  1.0854064743828907e-03 1.9802636079731656e-03 0.0000000000000000e+00  4.4303117778162973e-04 1.7759104690585352e-03 0.0000000000000000e+00  1.6896537999633479e-01 -4.2248053879490051e-02 0.0000000000000000e+00  1.7526925474065211e-01 -4.5823867848641932e-02 0.0000000000000000e+00  1.7414110428679297e-01 -4.4496663994985509e-02 0.0000000000000000e+00  1.9803811168213942e-01 -1.0998878940239393e-02 0.0000000000000000e+00  4.2737809621839590e-01 -5.6129269360206679e-02 0.0000000000000000e+00  1.3267146621687765e-05 7.0650789375749698e-06 0.0000000000000000e+00  5.0582715565846215e-01 3.1591559543899458e-02 0.0000000000000000e+00  8.5682610084274546e-05 -4.3608304055846890e-06 0.0000000000000000e+00  3.4063629408158774e-01 -9.0581103897302340e-02 0.0000000000000000e+00  4.7280961419386258e-01 8.0722705002203542e-03 0.0000000000000000e+00  3.2686608730779471e-01 6.7706231741385854e-03 0.0000000000000000e+00  3.0442842321318914e-03 2.8338276806948360e-04 0.0000000000000000e+00  2.3410257638693981e-06 -1.9653388916030906e-06 0.0000000000000000e+00  4.9766051120990230e-03 -4.0787784221478290e-04 0.0000000000000000e+00  2.5691381269906700e-05 -1.0706358096044422e-05 0.0000000000000000e+00  4.6390614830779603e-01 8.1474833245337289e-02 0.0000000000000000e+00  1.7561353769838359e-01 -4.0041298869131728e-02 0.0000000000000000e+00  6.0390737572965699e-05 1.6443894870923676e-06 0.0000000000000000e+00  9.0472600230675548e-02 -7.9643853240256215e-03 0.0000000000000000e+00  4.8144065346084475e-01 -1.0727691298308120e-01 0.0000000000000000e+00  1.2319370080345082e-01 2.2009763103302847e-02 0.0000000000000000e+00  1.3246160056280947e-02 3.2058402909078079e-04 0.0000000000000000e+00  3.6329497842293357e-01 4.2107135351608038e-02 0.0000000000000000e+00  3.3467705394248065e-01 8.7209694759174589e-02 0.0000000000000000e+00  3.0182514452464171e-02 4.1476370725104395e-03 0.0000000000000000e+00  1.2255371819505019e-05 -2.2512890734283523e-05 0.0000000000000000e+00  4.3475590233588129e-01 -1.1488879779960995e-01 0.0000000000000000e+00  2.1332492138221334e-01 1.1506756613318342e-02 0.0000000000000000e+00  1.9663447704387072e-04 -3.7646424483658158e-04 0.0000000000000000e+00  9.6197484536493724e-03 -1.2357493480093114e-03 0.0000000000000000e+00  5.5897954407209759e-02 -2.6639461866579616e-03 0.0000000000000000e+00  2.9401350885954325e-01 1.7768859227075422e-02 0.0000000000000000e+00  1.6284513523629580e-04 2.2536156769196971e-05 0.0000000000000000e+00  1.9358251854866186e-04 6.4605294883874926e-04 0.0000000000000000e+00  4.4223525712259182e-01 3.7986358042640687e-02 0.0000000000000000e+00  2.0243782383307088e-01 -7.0794800249128519e-04 0.0000000000000000e+00  2.6465046349059520e-05 6.1882450895250852e-05 0.0000000000000000e+00  4.8669590661634909e-04 3.7668548846064387e-04 0.0000000000000000e+00  2.6292052126795618e-01 3.7115522110571578e-02 0.0000000000000000e+00  2.2434552298278784e-01 -1.8479708604950948e-02 0.0000000000000000e+00  2.8323219092403723e-01 9.7352095237139436e-03 0.0000000000000000e+00  8.0339759295559920e-02 -1.9714172484687993e-02 0.0000000000000000e+00  4.2643096518627982e-01 2.5534205141983915e-02 0.0000000000000000e+00  3.8719210743124982e-02 -5.4857919872959545e-03 0.0000000000000000e+00  5.3683905514895916e-03 -3.5368568584660696e-03 0.0000000000000000e+00  4.3895773830475637e-03 3.2180510194344193e-03 0.0000000000000000e+00  1.7601377260105366e-01 -3.7805984989833868e-02 0.0000000000000000e+00  9.2542898675354299e-02 8.9729832579068490e-03 0.0000000000000000e+00  4.4647253312028116e-02 -3.2882666268035211e-04 0.0000000000000000e+00  2.8804596819244455e-01 1.8482912631861567e-02 0.0000000000000000e+00  4.84