<?xml version="1.0"?>
<VTKFile type="UnstructuredGrid"  version="0.1"  >
<UnstructuredGrid>
<Piece  NumberOfPoints="2868" NumberOfCells="5400">
<Points>
<DataArray  type="Float64"  NumberOfComponents="3"  format="ascii">0.534923 0.326073 0  0.510642 0.314196 0  0.466125 0.293082 0  0.436448 0.281205 0  0.409468 0.275927 0  0.368998 0.270648 0  0.35281 0.275927 0  0.381139 0.302319 0  0.405421 0.326073 0  0.410817 0.33531 0  0.408119 0.349826 0  0.400025 0.357744 0  0.375743 0.368301 0  0.329878 0.392055 0  0.297502 0.432963 0  0.282663 0.476511 0  0.285361 0.524018 0  0.298851 0.572845 0  0.317737 0.6045160000000001 0  0.337972 0.6361869999999999 0  0.360904 0.674457 0  0.368998 0.69953 0  0.359555 0.7219640000000001 0  0.360904 0.757594 0  0.370347 0.766831 0  0.381139 0.762872 0  0.390582 0.741758 0  0.404072 0.720644 0  0.424307 0.707448 0  0.447239 0.702169 0  0.480964 0.704808 0  0.479615 0.6889729999999999 0  0.468823 0.675776 0  0.447239 0.6691780000000001 0  0.428354 0.6691780000000001 0  0.410817 0.6639 0  0.404072 0.653343 0  0.395978 0.628269 0  0.387884 0.59132 0  0.389233 0.576804 0  0.397327 0.557009 0  0.410817 0.547772 0  0.424307 0.546452 0  0.437797 0.55305 0  0.44589 0.5662469999999999 0  0.441843 0.582082 0  0.439145 0.5979179999999999 0  0.449937 0.609795 0  0.468823 0.603196 0  0.479615 0.59 0  0.489058 0.570205 0  0.494454 0.546452 0  0.505246 0.522699 0  0.522783 0.509502 0  0.55246 0.494986 0  0.586185 0.484429 0  0.615863 0.48047 0  0.64554 0.473872 0  0.6671240000000001 0.461995 0  0.683312 0.451438 0  0.696802 0.435603 0  0.703547 0.417128 0  0.7116400000000001 0.393374 0  0.7183850000000001 0.37226 0  0.7251300000000001 0.364342 0  0.739969 0.353785 0  0.7453650000000001 0.344548 0  0.7453650000000001 0.327393 0  0.737271 0.318155 0  0.7183850000000001 0.316835 0  0.7008490000000001 0.319475 0  0.677916 0.318155 0  0.650936 0.316835 0  0.610467 0.318155 0  0.57944 0.324753 0  0.559205 0.328712 0  0.5389699999999999 0.326073 0  1 1 0  1 0 0  0 0 0  0 1 0  0.532238 0.32476 0  0.528748 0.323052 0  0.52421 0.320833 0  0.518311 0.317947 0  0.503447 0.310783 0  0.494093 0.306347 0  0.481933 0.30058 0  0.452151 0.28749 0  0.392327 0.273691 0  0.379141 0.271971 0  0.360474 0.283066 0  0.369797 0.291752 0  0.391424 0.31238 0  0.399335 0.32012 0  0.40958 0.341964 0  0.393939 0.36039 0  0.386028 0.36383 0  0.364248 0.374254 0  0.349304 0.381994 0  0.315801 0.409841 0  0.292986 0.551616 0  0.350934 0.657818 0  0.360127 0.737055 0  0.360566 0.748664 0  0.385245 0.753692 0  0.396447 0.732578 0  0.466301 0.703661 0  0.459439 0.672908 0  0.418442 0.666195 0  0.400553 0.642441 0  0.39255 0.612619 0  0.389913 0.60058 0  0.392752 0.568197 0  0.444131 0.573132 0  0.458149 0.606926 0  0.5005540000000001 0.533026 0  0.571522 0.489019 0  0.632637 0.476741 0  0.689177 0.444553 0  0.708121 0.403702 0  0.715453 0.38144 0  0.732406 0.359166 0  0.7453650000000001 0.337089 0  0.72906 0.317581 0  0.629879 0.317522 0  0.59293 0.321884 0  0.568003 0.326991 0  0.55202 0.327775 0  0.546493 0.327054 0  0.542241 0.326499 0  1 0.9 0  1 0.8 0  1 0.7 0  1 0.6 0  1 0.5 0  1 0.4 0  1 0.3 0  1 0.2 0  1 0.1 0  0.9 0 0  0.8 0 0  0.7 0 0  0.6 0 0  0.5 0 0  0.4 0 0  0.3 0 0  0.2 0 0  0.1 0 0  0.1 1 0  0.2 1 0  0.3 1 0  0.4 1 0  0.5 1 0  0.6 1 0  0.7 1 0  0.8 1 0  0.9 1 0  0 0.1 0  0 0.2 0  0 0.3 0  0 0.4 0  0 0.5 0  0 0.6 0  0 0.7 0  0 0.8 0  0 0.9 0  0.535686 0.5031910000000001 0  0.753987 0.733359 0  0.167145 0.741436 0  0.173378 0.257204 0  0.733497 0.159862 0  0.554096 0.15788 0  0.849187 0.479053 0  0.488793 0.838452 0  0.138507 0.5592 0  0.30686 0.154944 0  0.348904 0.890523 0  0.058006 0.065099 0  0.06984899999999999 0.937917 0  0.93633 0.939704 0  0.934625 0.053613 0  0.343397 0.333452 0  0.473272 0.639943 0  0.433266 0.638072 0  0.415174 0.58269 0  0.533435 0.545042 0  0.390848 0.340652 0  0.53655 0.320242 0  0.127966 0.393775 0  0.83861 0.850455 0  0.635242 0.8551299999999999 0  0.852158 0.633441 0  0.653427 0.626848 0  0.861226 0.24292 0  0.166128 0.12976 0  0.216875 0.8698709999999999 0  0.458305 0.11179 0  0.84446 0.101633 0  0.202024 0.642528 0  0.644825 0.115855 0  0.671342 0.218358 0  0.251354 0.286186 0  0.262388 0.75153 0  0.063044 0.751571 0  0.068189 0.242962 0  0.435781 0.9053949999999999 0  0.934144 0.451133 0  0.568393 0.237622 0  0.814984 0.395506 0  0.752951 0.517227 0  0.456254 0.780699 0  0.073352 0.531116 0  0.337731 0.206071 0  0.363213 0.960371 0  0.330742 0.363592 0  0.516613 0.55705 0  0.369057 0.332992 0  0.500926 0.617309 0  0.498004 0.665534 0  0.412142 0.61178 0  0.454233 0.6366039999999999 0  0.422782 0.567496 0  0.541193 0.5214800000000001 0  0.439761 0.65557 0  0.5163 0.533672 0  0.414775 0.64562 0  0.40073 0.576135 0  0.430362 0.5880339999999999 0  0.385432 0.351492 0  0.400298 0.335397 0  0.398325 0.348194 0  0.528702 0.314885 0  0.540814 0.322334 0  0.534477 0.322953 0  0.619095 0.743583 0  0.885162 0.737972 0  0.08076 0.668849 0  0.90734 0.36634 0  0.09468699999999999 0.868937 0  0.759838 0.912152 0  0.901518 0.540898 0  0.747285 0.607479 0  0.229182 0.071641 0  0.06915399999999999 0.450091 0  0.244775 0.203309 0  0.076534 0.331755 0  0.897847 0.167826 0  0.578909 0.911415 0  0.07713299999999999 0.146341 0  0.477215 0.203448 0  0.922631 0.869341 0  0.517415 0.074785 0  0.297026 0.827793 0  0.7832710000000001 0.246505 0  0.74519 0.061079 0  0.36033 0.069068 0  0.210313 0.475228 0  0.859426 0.928758 0  0.5745479999999999 0.609182 0  0.243069 0.383398 0  0.283099 0.934598 0  0.417416 0.843141 0  0.643942 0.553164 0  0.112687 0.079336 0  0.281357 0.658386 0  0.765043 0.436177 0  0.611361 0.198486 0  0.234496 0.58911 0  0.206479 0.702638 0  0.679608 0.155818 0  0.62682 0.259978 0  0.690538 0.264164 0  0.448938 0.956308 0  0.808154 0.328403 0  0.379583 0.91913 0  0.308083 0.297769 0  0.312358 0.730249 0  0.563101 0.278576 0  0.435597 0.746198 0  0.385475 0.225229 0  0.572248 0.518034 0  0.357864 0.35422 0  0.497647 0.641694 0  0.458101 0.655768 0  0.360474 0.310727 0  0.467038 0.620139 0  0.47798 0.659909 0  0.41102 0.628072 0  0.48324 0.609015 0  0.427544 0.617941 0  0.388633 0.328253 0  0.405336 0.599404 0  0.408351 0.565178 0  0.42395 0.600985 0  0.431562 0.576523 0  0.424905 0.6551979999999999 0  0.398064 0.58782 0  0.427739 0.557934 0  0.5192909999999999 0.303443 0  0.53142 0.320293 0  0.5449000000000001 0.323642 0  0.537166 0.323513 0  0.153974 0.920841 0  0.9181859999999999 0.67343 0  0.759946 0.820588 0  0.5375259999999999 0.783091 0  0.816532 0.545843 0  0.813991 0.178083 0  0.836774 0.702023 0  0.149815 0.318856 0  0.662287 0.923338 0  0.680146 0.791192 0  0.708961 0.663172 0  0.9372779999999999 0.287318 0  0.574622 0.6881660000000001 0  0.5894740000000001 0.076262 0  0.502822 0.926683 0  0.222269 0.811068 0  0.380457 0.164786 0  0.15321 0.684154 0  0.458063 0.051413 0  0.161702 0.056026 0  0.199351 0.198818 0  0.298946 0.09553200000000001 0  0.902465 0.795949 0  0.121139 0.791477 0  0.906269 0.112287 0  0.056109 0.822332 0  0.512172 0.13237 0  0.940964 0.741805 0  0.888887 0.408777 0  0.354543 0.825964 0  0.808736 0.068638 0  0.068507 0.394071 0  0.719105 0.563843 0  0.247287 0.149664 0  0.293062 0.237128 0  0.240524 0.434997 0  0.141255 0.623289 0  0.945202 0.160621 0  0.502914 0.247629 0  0.144669 0.480811 0  0.665025 0.060817 0  0.728047 0.224344 0  0.861995 0.313312 0  0.200068 0.534235 0  0.253262 0.965623 0  0.893804 0.49307 0  0.604391 0.572456 0  0.947088 0.345347 0  0.439372 0.227307 0  0.629847 0.159823 0  0.273405 0.880181 0  0.302744 0.776823 0  0.781502 0.295365 0  0.275342 0.349602 0  0.7283849999999999 0.472798 0  0.229136 0.246478 0  0.807794 0.480346 0  0.709476 0.112786 0  0.275506 0.694991 0  0.771674 0.394419 0  0.449715 0.861802 0  0.419159 0.799696 0  0.674851 0.503139 0  0.280443 0.61016 0  0.572443 0.192538 0  0.393113 0.87525 0  0.405555 0.948428 0  0.330942 0.934103 0  0.540509 0.597101 0  0.312763 0.6689310000000001 0  0.254368 0.540179 0  0.595265 0.25915 0  0.606679 0.234099 0  0.657131 0.279138 0  0.722458 0.279478 0  0.333 0.308056 0  0.351529 0.246142 0  0.455714 0.7257940000000001 0  0.585239 0.295143 0  0.340062 0.72492 0  0.545593 0.293773 0  0.555449 0.545426 0  0.414311 0.737314 0  0.590854 0.502323 0  0.350507 0.368444 0  0.484423 0.625665 0  0.483899 0.674542 0  0.378137 0.317274 0  0.446416 0.646404 0  0.373532 0.347654 0  0.446876 0.619769 0  0.466106 0.666068 0  0.437545 0.609254 0  0.434988 0.565726 0  0.41462 0.656829 0  0.418803 0.556961 0  0.398425 0.327446 0  0.517803 0.310421 0  0.549516 0.322918 0  0.57701 0.842889 0  0.8291269999999999 0.773906 0  0.643235 0.684732 0  0.134281 0.207734 0  0.865997 0.055966 0  0.680959 0.723345 0  0.165229 0.8415550000000001 0  0.54558 0.959672 0  0.783726 0.656439 0  0.913315 0.595533 0  0.699439 0.860667 0  0.785839 0.125076 0  0.551673 0.037713 0  0.9200970000000001 0.223214 0  0.206406 0.299726 0  0.087064 0.596401 0  0.935644 0.394252 0  0.964557 0.252582 0  0.230124 0.928346 0  0.120579 0.271764 0  0.8572149999999999 0.524082 0  0.7670979999999999 0.5551469999999999 0  0.936094 0.507131 0  0.804064 0.59585 0  0.700565 0.608273 0  0.429773 0.174231 0  0.117746 0.727333 0  0.5389620000000001 0.730231 0  0.862761 0.359173 0  0.821444 0.284046 0  0.193552 0.35818 0  0.234923 0.505555 0  0.193209 0.421217 0  0.220144 0.755896 0  0.594015 0.131642 0  0.283813 0.195855 0  0.517519 0.213961 0  0.553509 0.639116 0  0.280391 0.378018 0  0.852183 0.436817 0  0.746983 0.197173 0  0.821806 0.221318 0  0.449853 0.828453 0  0.883758 0.453926 0  0.183484 0.589542 0  0.348384 0.129314 0  0.255254 0.838525 0  0.504849 0.798516 0  0.320344 0.863432 0  0.611669 0.525425 0  0.265864 0.804962 0  0.72056 0.521442 0  0.613372 0.6101220000000001 0  0.481262 0.881068 0  0.655778 0.191988 0  0.701921 0.196918 0  0.5658260000000001 0.5731810000000001 0  0.46914 0.240927 0  0.343219 0.173284 0  0.888786 0.278502 0  0.244113 0.6750930000000001 0  0.739546 0.417914 0  0.784023 0.355942 0  0.326805 0.265549 0  0.248616 0.6
[...]
<PointData  Vectors="f_21"> 
<DataArray  type="Float64"  Name="f_21"  NumberOfComponents="3" format="ascii">7.2930319450516978e-02 -2.0866532979066963e-02 0.0000000000000000e+00  6.2318588968408167e-02 -1.3448839373662076e-02 0.0000000000000000e+00  3.6845525633495239e-02 -4.7845387645282763e-03 0.0000000000000000e+00  2.2357735008499097e-02 -2.7195307630305675e-03 0.0000000000000000e+00  1.3147320472179617e-02 -1.9316179044887344e-03 0.0000000000000000e+00  4.5614212783263710e-03 -6.4538085469350182e-04 0.0000000000000000e+00  1.8361952223046511e-03 -3.0301803494786318e-04 0.0000000000000000e+00  1.9492865485319161e-04 1.4281991810425102e-04 0.0000000000000000e+00  4.8830977163071872e-05 7.0622871682621079e-05 0.0000000000000000e+00  3.2519607739573637e-05 7.2255644298163167e-05 0.0000000000000000e+00  8.4717144844567559e-06 6.4750172314990918e-05 0.0000000000000000e+00  -3.4209328050737491e-06 5.1699905252597127e-05 0.0000000000000000e+00  -1.6105166149753057e-05 1.6406756313007199e-05 0.0000000000000000e+00  -5.4161824497677516e-06 -1.7528729450490739e-05 0.0000000000000000e+00  5.0007883807761647e-07 -5.0045644252595050e-06 0.0000000000000000e+00  4.9744424509001621e-08 -8.0057640340163863e-07 0.0000000000000000e+00  -1.7740573987113611e-08 8.7579206206527503e-08 0.0000000000000000e+00  1.8154351857930714e-07 1.3536561348257819e-06 0.0000000000000000e+00  2.1321690230277363e-07 4.8437123562174548e-06 0.0000000000000000e+00  -1.3288582703256121e-06 1.2705491703849017e-05 0.0000000000000000e+00  -1.0585473772358687e-05 1.7357998485107272e-05 0.0000000000000000e+00  6.3250054488245382e-06 -6.4364708946043070e-06 0.0000000000000000e+00  9.3943820805389170e-05 -1.9187266683398330e-05 0.0000000000000000e+00  1.6314797461891113e-03 -7.4552088859893673e-05 0.0000000000000000e+00  4.5179631333750400e-03 -5.0769039510322746e-04 0.0000000000000000e+00  7.8090379865260358e-03 -5.1049789773338096e-04 0.0000000000000000e+00  1.3407527281303221e-02 -6.1918382544436752e-04 0.0000000000000000e+00  1.7723941412410939e-02 5.0832556251733459e-04 0.0000000000000000e+00  2.1428504911792302e-02 2.8332784844338761e-03 0.0000000000000000e+00  2.4545521824635975e-02 4.7163177896584231e-03 0.0000000000000000e+00  3.6593535765800801e-02 1.4415331478977663e-04 0.0000000000000000e+00  4.2763381057084132e-02 -2.4480307010096847e-03 0.0000000000000000e+00  3.7263999638334613e-02 -3.5399271281503228e-03 0.0000000000000000e+00  2.9201385148219638e-02 -4.2584071631817013e-03 0.0000000000000000e+00  2.5959861784882320e-02 -2.5436860723895677e-03 0.0000000000000000e+00  2.4044059867002816e-02 9.9992245007221635e-04 0.0000000000000000e+00  2.1521962208872394e-02 2.5657961820380903e-03 0.0000000000000000e+00  1.5724481336945935e-02 4.9421039327569071e-03 0.0000000000000000e+00  6.2271982883436343e-03 6.5788859846275813e-03 0.0000000000000000e+00  3.2822579091512159e-03 5.9044939082951546e-03 0.0000000000000000e+00  1.7913526292773704e-04 4.2341878016471709e-03 0.0000000000000000e+00  -1.0306006330186490e-03 2.3144729568447204e-03 0.0000000000000000e+00  -1.2034832465322946e-03 6.0580035445248633e-04 0.0000000000000000e+00  -4.5540214879433920e-04 -1.1647506379792415e-03 0.0000000000000000e+00  1.3543382033533616e-03 -2.5451729265846207e-03 0.0000000000000000e+00  4.2728702413677875e-03 -2.4254298334534718e-03 0.0000000000000000e+00  1.0345080673587923e-02 -1.8703413791967640e-03 0.0000000000000000e+00  2.3787439353323919e-02 -3.1923602617583658e-03 0.0000000000000000e+00  4.0285449778940295e-02 -3.7075692606440549e-03 0.0000000000000000e+00  5.3851949883843848e-02 -4.7332627812543921e-03 0.0000000000000000e+00  6.8220195296191583e-02 -6.8686963724098049e-03 0.0000000000000000e+00  8.2861929394824438e-02 -8.8584450167851960e-03 0.0000000000000000e+00  9.7562403882908100e-02 -6.1360631891972713e-03 0.0000000000000000e+00  1.0663627277838852e-01 7.5934724373877727e-04 0.0000000000000000e+00  1.2008280181219634e-01 1.0113145004550121e-02 0.0000000000000000e+00  1.3631266738074141e-01 1.6535970897045615e-02 0.0000000000000000e+00  1.5605630404669996e-01 1.7237459549077030e-02 0.0000000000000000e+00  1.8857842831971847e-01 1.2494384390010599e-02 0.0000000000000000e+00  2.2307884348852561e-01 1.1524658417976404e-02 0.0000000000000000e+00  2.4932471582827215e-01 1.0553752798896672e-02 0.0000000000000000e+00  2.7674579810059297e-01 1.0485927475354423e-02 0.0000000000000000e+00  2.9783226394025997e-01 1.1086798995391523e-02 0.0000000000000000e+00  3.1194744041984424e-01 1.5982923449427085e-02 0.0000000000000000e+00  3.1489396525798119e-01 2.0022189927665340e-02 0.0000000000000000e+00  3.1411896143079315e-01 2.1284678903565512e-02 0.0000000000000000e+00  3.0900426832729649e-01 2.2025416183083145e-02 0.0000000000000000e+00  2.9945862092606290e-01 2.0353253108441435e-02 0.0000000000000000e+00  2.6801211728773461e-01 1.4562944942564495e-02 0.0000000000000000e+00  2.3613581876193288e-01 7.8590169101643154e-03 0.0000000000000000e+00  1.9877136616335989e-01 -8.6455655667872847e-03 0.0000000000000000e+00  1.7764043095467397e-01 -1.8833195325630669e-02 0.0000000000000000e+00  1.5816299718931381e-01 -2.4227901903396402e-02 0.0000000000000000e+00  1.3370138403841814e-01 -2.6253688097754461e-02 0.0000000000000000e+00  1.0036379908394699e-01 -2.6876759016400173e-02 0.0000000000000000e+00  8.2839275232908419e-02 -2.7326126129547774e-02 0.0000000000000000e+00  7.7718244854012283e-02 -2.5919828458302492e-02 0.0000000000000000e+00  7.3449118149081491e-02 -2.1877930960487520e-02 0.0000000000000000e+00  4.6007755084507418e-01 -1.2906296318774271e-01 0.0000000000000000e+00  4.6019223001657872e-01 1.2872514461495252e-01 0.0000000000000000e+00  0.0000000000000000e+00 0.0000000000000000e+00 0.0000000000000000e+00  0.0000000000000000e+00 0.0000000000000000e+00 0.0000000000000000e+00  7.2176026889790287e-02 -2.0021991710784427e-02 0.0000000000000000e+00  7.0914280685929379e-02 -1.8917791780259298e-02 0.0000000000000000e+00  6.9010735524970931e-02 -1.7492541647702510e-02 0.0000000000000000e+00  6.6277969889482299e-02 -1.5670831468363081e-02 0.0000000000000000e+00  5.8416956148636956e-02 -1.1591476073509381e-02 0.0000000000000000e+00  5.3076056037124779e-02 -9.3503100284630086e-03 0.0000000000000000e+00  4.6138140214320569e-02 -7.0775934222956230e-03 0.0000000000000000e+00  2.9774561572942258e-02 -3.5711160384504577e-03 0.0000000000000000e+00  9.2365172271668163e-03 -1.5775695975326807e-03 0.0000000000000000e+00  6.6526988742818208e-03 -1.0465123899741993e-03 0.0000000000000000e+00  8.9112694385461350e-04 1.4297194987855337e-04 0.0000000000000000e+00  4.2151005610771119e-04 1.8890908776186263e-04 0.0000000000000000e+00  9.6656203013887620e-05 9.4449459298914226e-05 0.0000000000000000e+00  6.3977462508378629e-05 7.5364865596610331e-05 0.0000000000000000e+00  2.1552176929116258e-05 6.8702506552378840e-05 0.0000000000000000e+00  -7.3293250186271366e-06 4.2713847145381184e-05 0.0000000000000000e+00  -1.2088406818507745e-05 3.1741634565125164e-05 0.0000000000000000e+00  -1.7051309168376789e-05 -1.4761345436771081e-07 0.0000000000000000e+00  -1.3010007718748430e-05 -1.2822062666630545e-05 0.0000000000000000e+00  -7.1076187088407084e-07 -1.1946140476549134e-05 0.0000000000000000e+00  3.8474733851243041e-08 5.3693942645438624e-07 0.0000000000000000e+00  -6.1880952160768967e-06 1.8785910055381270e-05 0.0000000000000000e+00  3.1478582601074943e-04 -7.9003776716762551e-05 0.0000000000000000e+00  7.6946974784533281e-04 -1.4989730142260250e-04 0.0000000000000000e+00  1.0835394882551901e-02 -7.6177557679832028e-04 0.0000000000000000e+00  1.5271922968619846e-02 -2.0310962763281029e-04 0.0000000000000000e+00  2.8991026169371180e-02 4.0049410116760166e-03 0.0000000000000000e+00  3.3376789243039898e-02 -4.3913694160273731e-03 0.0000000000000000e+00  2.4758942070374271e-02 -6.8000935441287109e-04 0.0000000000000000e+00  1.9037257142323273e-02 3.5451365961698808e-03 0.0000000000000000e+00  1.1527679601782703e-02 5.9218998555160222e-03 0.0000000000000000e+00  8.4491594831763283e-03 6.3619028125634011e-03 0.0000000000000000e+00  1.8200398385069723e-03 5.0974159798920461e-03 0.0000000000000000e+00  2.4571254701516482e-03 -2.4327498530337761e-03 0.0000000000000000e+00  3.1366886063766364e-02 -3.3318775120944949e-03 0.0000000000000000e+00  9.1324034463728276e-02 -7.5933502629482452e-03 0.0000000000000000e+00  1.2885178139773004e-01 1.4334819072660689e-02 0.0000000000000000e+00  1.7284549074131675e-01 1.5387181458831344e-02 0.0000000000000000e+00  2.6239736072264236e-01 9.9467713029599645e-03 0.0000000000000000e+00  3.0738315595906962e-01 1.3692950798712878e-02 0.0000000000000000e+00  3.1454285386993441e-01 1.8497923429350152e-02 0.0000000000000000e+00  3.1221828109572441e-01 2.2013485552844974e-02 0.0000000000000000e+00  2.8874406865942820e-01 2.0403142860039986e-02 0.0000000000000000e+00  2.1702096061877882e-01 -9.9308521998187180e-04 0.0000000000000000e+00  1.1545364976436863e-01 -2.7112665145611954e-02 0.0000000000000000e+00  8.8806356506257511e-02 -2.7359189184554961e-02 0.0000000000000000e+00  7.9355631199425750e-02 -2.6796580018433699e-02 0.0000000000000000e+00  7.6396258009963539e-02 -2.4712021576112082e-02 0.0000000000000000e+00  7.5156002225824747e-02 -2.3571487383876995e-02 0.0000000000000000e+00  7.4184919655333748e-02 -2.2636689698291589e-02 0.0000000000000000e+00  4.4095086884487922e-01 -9.7573412919114089e-02 0.0000000000000000e+00  4.2383837248330541e-01 -6.3999823447480703e-02 0.0000000000000000e+00  4.1798232707464228e-01 -3.2005577087804361e-02 0.0000000000000000e+00  4.1997295842456539e-01 -1.0287988760930157e-02 0.0000000000000000e+00  4.2566075245105356e-01 5.0011748030727660e-03 0.0000000000000000e+00  4.3326952088247794e-01 1.4360203163530259e-02 0.0000000000000000e+00  4.3008707607976909e-01 2.8157184290246481e-02 0.0000000000000000e+00  4.2865796287200036e-01 6.0100100487913567e-02 0.0000000000000000e+00  4.4177965312925505e-01 9.6336291804863458e-02 0.0000000000000000e+00  3.6746400915471406e-01 1.0990864338953203e-01 0.0000000000000000e+00  2.7811121217229334e-01 8.9756154076970088e-02 0.0000000000000000e+00  1.8797313190918569e-01 6.1736259880623298e-02 0.0000000000000000e+00  1.0172508290126159e-01 3.2673563870885804e-02 0.0000000000000000e+00  4.0088407457281136e-02 1.2779379297323196e-02 0.0000000000000000e+00  7.5913118034871040e-03 2.4505524200778908e-03 0.0000000000000000e+00  5.5734705779795482e-04 1.8096432813648891e-04 0.0000000000000000e+00  2.6326564254403311e-05 8.8172992424758087e-06 0.0000000000000000e+00  4.5777180273890482e-07 1.9529315025700522e-07 0.0000000000000000e+00  2.4268089467567380e-07 -7.3198123876885433e-08 0.0000000000000000e+00  1.3610199988628702e-05 -4.1749807304841166e-06 0.0000000000000000e+00  4.5189286743360960e-04 -1.2985570446466530e-04 0.0000000000000000e+00  7.4325219439994325e-03 -2.3693410849660343e-03 0.0000000000000000e+00  4.0354631871497119e-02 -1.3000423180322339e-02 0.0000000000000000e+00  1.0214043901214372e-01 -3.3601241843046942e-02 0.0000000000000000e+00  1.8812498448373993e-01 -6.3286496954887375e-02 0.0000000000000000e+00  2.7800081679299010e-01 -9.0578775734961009e-02 0.0000000000000000e+00  3.6733798510162430e-01 -1.1066914567361676e-01 0.0000000000000000e+00  0.0000000000000000e+00 0.0000000000000000e+00 0.0000000000000000e+00  0.0000000000000000e+00 0.0000000000000000e+00 0.0000000000000000e+00  0.0000000000000000e+00 0.0000000000000000e+00 0.0000000000000000e+00  0.0000000000000000e+00 0.0000000000000000e+00 0.0000000000000000e+00  0.0000000000000000e+00 0.0000000000000000e+00 0.0000000000000000e+00  0.0000000000000000e+00 0.0000000000000000e+00 0.0000000000000000e+00  0.0000000000000000e+00 0.0000000000000000e+00 0.0000000000000000e+00  0.0000000000000000e+00 0.0000000000000000e+00 0.0000000000000000e+00  0.0000000000000000e+00 0.0000000000000000e+00 0.0000000000000000e+00  1.1216692195734303e-01 5.0254392383604846e-03 0.0000000000000000e+00  2.0333595587354669e-01 -1.4409393362892702e-02 0.0000000000000000e+00  5.1451720166989881e-06 1.9487959688922383e-06 0.0000000000000000e+00  1.3467722656307418e-05 -2.9982675244811360e-06 0.0000000000000000e+00  1.9028921036929602e-01 2.3986981654280131e-02 0.0000000000000000e+00  5.6832869272566741e-02 1.2701316627141297e-03 0.0000000000000000e+00  3.1831020758259537e-01 1.5709230020789548e-02 0.0000000000000000e+00  3.0550489987702587e-02 -1.7457891468922945e-03 0.0000000000000000e+00  2.2968863979822251e-08 2.1710610435819624e-08 0.0000000000000000e+00  8.9251069721340138e-04 4.5163796962310349e-05 0.0000000000000000e+00  2.2035886884912994e-03 -2.0077403348333939e-04 0.0000000000000000e+00  1.5213634369340638e-07 3.2887596326449390e-08 0.0000000000000000e+00  1.3678779577782249e-07 -2.8011703652715169e-08 0.0000000000000000e+00  3.8922943145662309e-01 -9.8691418058759389e-02 0.0000000000000000e+00  3.8932314608144747e-01 9.9681024169987670e-02 0.0000000000000000e+00  1.4613884497960961e-05 -5.1720626024917085e-05 0.0000000000000000e+00  3.3086113240409019e-02 -3.2204066326759224e-03 0.0000000000000000e+00  2.1984567607117832e-02 -2.1796568562189628e-03 0.0000000000000000e+00  4.4392690300821295e-03 2.2743536181300118e-03 0.0000000000000000e+00  8.7870095890812336e-02 4.1837813904529193e-03 0.0000000000000000e+00  1.9086085148773943e-05 4.9236777552148733e-05 0.0000000000000000e+00  7.1098534453531398e-02 -2.0958729789247735e-02 0.0000000000000000e+00  2.8832634711962294e-07 -2.2250246874603379e-07 0.0000000000000000e+00  2.8181694245571032e-01 -5.3955011322486035e-02 0.0000000000000000e+00  1.0765219528701465e-01 -1.4026414045405930e-02 0.0000000000000000e+00  2.9153448829688666e-01 -7.1034744965127053e-03 0.0000000000000000e+00  1.3007400308732114e-01 1.8445764753433483e-03 0.0000000000000000e+00  3.0640142245679958e-01 2.5027370143751657e-02 0.0000000000000000e+00  1.0018072505319356e-05 1.3886868493690311e-06 0.0000000000000000e+00  4.9188040189193848e-05 -2.8525059315042639e-06 0.0000000000000000e+00  1.8917340676075492e-02 1.1005170712364589e-03 0.0000000000000000e+00  2.9707919032520724e-01 6.6586293521779416e-02 0.0000000000000000e+00  1.3037511885527249e-06 1.4503876896362664e-06 0.0000000000000000e+00  1.1638005044554726e-01 1.6743020333197644e-02 0.0000000000000000e+00  1.4210811476272381e-01 6.5843494708052165e-05 0.0000000000000000e+00  1.0464978085310156e-04 -5.1131488291022276e-05 0.0000000000000000e+00  1.1736707808593978e-04 5.5658700118151917e-05 0.0000000000000000e+00  1.2634969280969696e-07 2.9514858063070541e-08 0.0000000000000000e+00  3.8842762427312218e-07 -5.2597007412293224e-08 0.0000000000000000e+00  1.3237850319462539e-02 -1.1208990307467258e-03 0.0000000000000000e+00  3.7747995126018158e-01 1.0094935166741233e-02 0.0000000000000000e+00  6.9582581264077945e-02 -9.3069593358721149e-03 0.0000000000000000e+00  3.2219677617795806e-01 1.3246833791410563e-02 0.0000000000000000e+00  2.4000623329333196e-01 1.7110857409126965e-02 0.0000000000000000e+00  2.1527212948219146e-02 3.1623585381320969e-04 0.0000000000000000e+00  2.8464901312287012e-09 4.6322352198787202e-10 0.0000000000000000e+00  2.0439676793364563e-03 4.0091950382747401e-05 0.0000000000000000e+00  2.7988604464355507e-03 -5.5640213636981356e-04 0.0000000000000000e+00  -5.8023047554301656e-06 -2.8616986741269499e-05 0.0000000000000000e+00  7.7775817108444750e-02 6.4562080065838732e-04 0.0000000000000000e+00  1.7852687843211755e-05 2.9510640705766291e-05 0.0000000000000000e+00  4.6194481163215895e-02 8.1973906223541788e-05 0.0000000000000000e+00  4.3224256685259012e-02 -1.7759942708433479e-03 0.0000000000000000e+00  1.2526445068185756e-02 2.3828564713909628e-03 0.0000000000000000e+00  2.7057518416799684e-02 -3.9243057992084567e-03 0.0000000000000000e+00  1.5619079580812332e-03 9.2144538035000465e-04 0.0000000000000000e+00  1.0300143034977700e-01 6.2729672126280471e-03 0.0000000000000000e+00  2.5626400706553719e-02 -3.2629260593477682e-03 0.0000000000000000e+00  9.1628012293993588e-02 -1.0331101831350434e-03 0.0000000000000000e+00  2.0397680901310500e-02 4.3296878683182804e-04 0.0000000000000000e+00  3.1457858482896220e-03 3.9814894905307371e-03 0.0000000000000000e+00  6.0610170679000416e-03 1.2842317546045429e-04 0.0000000000000000e+00  2.5725575717421377e-06 3.4557436078175091e-05 0.0000000000000000e+00  3.1463676562542589e-05 6.0925740250349879e-05 0.0000000000000000e+00  1.0041034909087227e-05 5.1275745517703763e-05 0.0000000000000000e+00  6.7072164682843646e-02 -1.8494888132825738e-02 0.0000000000000000e+00  7.2689156260036233e-02 -2.2066772065130261e-02 0.0000000000000000e+00  7.1724633886085187e-02 -2.0615000563340657e-02 0.0000000000000000e+00  9.9902089026418839e-02 -4.5142926801601171e-03 0.0000000000000000e+00  3.1474181796748563e-01 -3.2283377589659573e-02 0.0000000000000000e+00  7.0265702734876064e-08 3.5123513192902547e-08 0.0000000000000000e+00  3.6253242249240375e-01 1.3406190630098175e-02 0.0000000000000000e+00  4.9399552641327195e-07 -5.6908524952164722e-08 0.0000000000000000e+00  2.2097948457944661e-01 -5.4027264585676901e-02 0.0000000000000000e+00  3.4195384863312017e-01 3.9296027482937394e-03 0.0000000000000000e+00  2.0758873446611570e-01 4.2082739354852815e-03 0.0000000000000000e+00  6.3564178308862538e-05 1.1231630353950465e-05 0.0000000000000000e+00  1.1979901416373031e-08 -1.0106284077953472e-08 0.0000000000000000e+00  1.7210646999750128e-04 -6.6198413874889837e-06 0.0000000000000000e+00  2.0264542454975265e-07 -7.8602005321936719e-08 0.0000000000000000e+00  3.3706431711311741e-01 5.4894152770642281e-02 0.0000000000000000e+00  7.2824512236371486e-02 -1.2240109749051067e-02 0.0000000000000000e+00  3.9767560414768457e-07 2.4154143778715225e-08 0.0000000000000000e+00  2.5571079259036799e-02 -1.2421558878567794e-03 0.0000000000000000e+00  3.6287046127582812e-01 -7.4622379367669536e-02 0.0000000000000000e+00  4.0662162556758315e-02 5.6200502555760817e-03 0.0000000000000000e+00  6.3228293079200604e-04 -1.5515453830202446e-06 0.0000000000000000e+00  2.4152298267607381e-01 1.3756227142502221e-02 0.0000000000000000e+00  2.1346959147990310e-01 5.5881559725440379e-02 0.0000000000000000e+00  2.7016525622380761e-03 3.5927231032323136e-04 0.0000000000000000e+00  1.2978180927553949e-07 -2.2804329661956584e-07 0.0000000000000000e+00  3.1622814520081682e-01 -8.1675917872471734e-02 0.0000000000000000e+00  8.1212739461166319e-02 3.8283077481643928e-03 0.0000000000000000e+00  4.3151150504845864e-06 -7.5387033627783704e-06 0.0000000000000000e+00  3.3103104239858304e-04 -4.7544881921709568e-05 0.0000000000000000e+00  1.0358092044175281e-02 -4.5541488236661425e-04 0.0000000000000000e+00  1.4165297435995094e-01 7.5663934508804868e-03 0.0000000000000000e+00  1.3304073534790680e-06 2.5815358140253111e-07 0.0000000000000000e+00  4.7390085602648303e-06 1.4249981784191238e-05 0.0000000000000000e+00  2.9656132460279128e-01 2.3603786140842083e-02 0.0000000000000000e+00  9.2970697238105707e-02 -1.9816038357961079e-03 0.0000000000000000e+00  3.0853703964280112e-07 6.1615141678409032e-07 0.0000000000000000e+00  7.8536671767777112e-06 5.5900559981650519e-06 0.0000000000000000e+00  1.4319466763191227e-01 1.4345696733657142e-02 0.0000000000000000e+00  1.1201777954159017e-01 -1.3438222258297427e-02 0.0000000000000000e+00  1.6714522970643766e-01 -5.3709260828429329e-03 0.0000000000000000e+00  1.6908000256425214e-02 -3.1861362844192191e-03 0.0000000000000000e+00  2.9828815704724132e-01 3.8077030316018227e-03 0.0000000000000000e+00  4.3165492538552635e-03 -4.5842732423150939e-04 0.0000000000000000e+00  2.8244489922772182e-04 -2.2238289696157741e-04 0.0000000000000000e+00  1.8670113249254867e-04 1.8368089996558692e-04 0.0000000000000000e+00  7.2008548321229632e-02 -1.7883303519562105e-02 0.0000000000000000e+00  1.8130646350261098e-02 1.9931800599254424e-03 0.0000000000000000e+00  5.9297733536764988e-03 -2.9231824282580412e-05 0.0000000000000000e+00  1.1517236071888130e-01 1.1794138935103020e-02 0.0000000000000000e+00  -8.