<?xml version="1.0"?>
<VTKFile type="UnstructuredGrid"  version="0.1"  >
<UnstructuredGrid>
<Piece  NumberOfPoints="2868" NumberOfCells="5400">
<Points>
<DataArray  type="Float64"  NumberOfComponents="3"  format="ascii">0.534923 0.326073 0  0.510642 0.314196 0  0.466125 0.293082 0  0.436448 0.281205 0  0.409468 0.275927 0  0.368998 0.270648 0  0.35281 0.275927 0  0.381139 0.302319 0  0.405421 0.326073 0  0.410817 0.33531 0  0.408119 0.349826 0  0.400025 0.357744 0  0.375743 0.368301 0  0.329878 0.392055 0  0.297502 0.432963 0  0.282663 0.476511 0  0.285361 0.524018 0  0.298851 0.572845 0  0.317737 0.6045160000000001 0  0.337972 0.6361869999999999 0  0.360904 0.674457 0  0.368998 0.69953 0  0.359555 0.7219640000000001 0  0.360904 0.757594 0  0.370347 0.766831 0  0.381139 0.762872 0  0.390582 0.741758 0  0.404072 0.720644 0  0.424307 0.707448 0  0.447239 0.702169 0  0.480964 0.704808 0  0.479615 0.6889729999999999 0  0.468823 0.675776 0  0.447239 0.6691780000000001 0  0.428354 0.6691780000000001 0  0.410817 0.6639 0  0.404072 0.653343 0  0.395978 0.628269 0  0.387884 0.59132 0  0.389233 0.576804 0  0.397327 0.557009 0  0.410817 0.547772 0  0.424307 0.546452 0  0.437797 0.55305 0  0.44589 0.5662469999999999 0  0.441843 0.582082 0  0.439145 0.5979179999999999 0  0.449937 0.609795 0  0.468823 0.603196 0  0.479615 0.59 0  0.489058 0.570205 0  0.494454 0.546452 0  0.505246 0.522699 0  0.522783 0.509502 0  0.55246 0.494986 0  0.586185 0.484429 0  0.615863 0.48047 0  0.64554 0.473872 0  0.6671240000000001 0.461995 0  0.683312 0.451438 0  0.696802 0.435603 0  0.703547 0.417128 0  0.7116400000000001 0.393374 0  0.7183850000000001 0.37226 0  0.7251300000000001 0.364342 0  0.739969 0.353785 0  0.7453650000000001 0.344548 0  0.7453650000000001 0.327393 0  0.737271 0.318155 0  0.7183850000000001 0.316835 0  0.7008490000000001 0.319475 0  0.677916 0.318155 0  0.650936 0.316835 0  0.610467 0.318155 0  0.57944 0.324753 0  0.559205 0.328712 0  0.5389699999999999 0.326073 0  1 1 0  1 0 0  0 0 0  0 1 0  0.532238 0.32476 0  0.528748 0.323052 0  0.52421 0.320833 0  0.518311 0.317947 0  0.503447 0.310783 0  0.494093 0.306347 0  0.481933 0.30058 0  0.452151 0.28749 0  0.392327 0.273691 0  0.379141 0.271971 0  0.360474 0.283066 0  0.369797 0.291752 0  0.391424 0.31238 0  0.399335 0.32012 0  0.40958 0.341964 0  0.393939 0.36039 0  0.386028 0.36383 0  0.364248 0.374254 0  0.349304 0.381994 0  0.315801 0.409841 0  0.292986 0.551616 0  0.350934 0.657818 0  0.360127 0.737055 0  0.360566 0.748664 0  0.385245 0.753692 0  0.396447 0.732578 0  0.466301 0.703661 0  0.459439 0.672908 0  0.418442 0.666195 0  0.400553 0.642441 0  0.39255 0.612619 0  0.389913 0.60058 0  0.392752 0.568197 0  0.444131 0.573132 0  0.458149 0.606926 0  0.5005540000000001 0.533026 0  0.571522 0.489019 0  0.632637 0.476741 0  0.689177 0.444553 0  0.708121 0.403702 0  0.715453 0.38144 0  0.732406 0.359166 0  0.7453650000000001 0.337089 0  0.72906 0.317581 0  0.629879 0.317522 0  0.59293 0.321884 0  0.568003 0.326991 0  0.55202 0.327775 0  0.546493 0.327054 0  0.542241 0.326499 0  1 0.9 0  1 0.8 0  1 0.7 0  1 0.6 0  1 0.5 0  1 0.4 0  1 0.3 0  1 0.2 0  1 0.1 0  0.9 0 0  0.8 0 0  0.7 0 0  0.6 0 0  0.5 0 0  0.4 0 0  0.3 0 0  0.2 0 0  0.1 0 0  0.1 1 0  0.2 1 0  0.3 1 0  0.4 1 0  0.5 1 0  0.6 1 0  0.7 1 0  0.8 1 0  0.9 1 0  0 0.1 0  0 0.2 0  0 0.3 0  0 0.4 0  0 0.5 0  0 0.6 0  0 0.7 0  0 0.8 0  0 0.9 0  0.535686 0.5031910000000001 0  0.753987 0.733359 0  0.167145 0.741436 0  0.173378 0.257204 0  0.733497 0.159862 0  0.554096 0.15788 0  0.849187 0.479053 0  0.488793 0.838452 0  0.138507 0.5592 0  0.30686 0.154944 0  0.348904 0.890523 0  0.058006 0.065099 0  0.06984899999999999 0.937917 0  0.93633 0.939704 0  0.934625 0.053613 0  0.343397 0.333452 0  0.473272 0.639943 0  0.433266 0.638072 0  0.415174 0.58269 0  0.533435 0.545042 0  0.390848 0.340652 0  0.53655 0.320242 0  0.127966 0.393775 0  0.83861 0.850455 0  0.635242 0.8551299999999999 0  0.852158 0.633441 0  0.653427 0.626848 0  0.861226 0.24292 0  0.166128 0.12976 0  0.216875 0.8698709999999999 0  0.458305 0.11179 0  0.84446 0.101633 0  0.202024 0.642528 0  0.644825 0.115855 0  0.671342 0.218358 0  0.251354 0.286186 0  0.262388 0.75153 0  0.063044 0.751571 0  0.068189 0.242962 0  0.435781 0.9053949999999999 0  0.934144 0.451133 0  0.568393 0.237622 0  0.814984 0.395506 0  0.752951 0.517227 0  0.456254 0.780699 0  0.073352 0.531116 0  0.337731 0.206071 0  0.363213 0.960371 0  0.330742 0.363592 0  0.516613 0.55705 0  0.369057 0.332992 0  0.500926 0.617309 0  0.498004 0.665534 0  0.412142 0.61178 0  0.454233 0.6366039999999999 0  0.422782 0.567496 0  0.541193 0.5214800000000001 0  0.439761 0.65557 0  0.5163 0.533672 0  0.414775 0.64562 0  0.40073 0.576135 0  0.430362 0.5880339999999999 0  0.385432 0.351492 0  0.400298 0.335397 0  0.398325 0.348194 0  0.528702 0.314885 0  0.540814 0.322334 0  0.534477 0.322953 0  0.619095 0.743583 0  0.885162 0.737972 0  0.08076 0.668849 0  0.90734 0.36634 0  0.09468699999999999 0.868937 0  0.759838 0.912152 0  0.901518 0.540898 0  0.747285 0.607479 0  0.229182 0.071641 0  0.06915399999999999 0.450091 0  0.244775 0.203309 0  0.076534 0.331755 0  0.897847 0.167826 0  0.578909 0.911415 0  0.07713299999999999 0.146341 0  0.477215 0.203448 0  0.922631 0.869341 0  0.517415 0.074785 0  0.297026 0.827793 0  0.7832710000000001 0.246505 0  0.74519 0.061079 0  0.36033 0.069068 0  0.210313 0.475228 0  0.859426 0.928758 0  0.5745479999999999 0.609182 0  0.243069 0.383398 0  0.283099 0.934598 0  0.417416 0.843141 0  0.643942 0.553164 0  0.112687 0.079336 0  0.281357 0.658386 0  0.765043 0.436177 0  0.611361 0.198486 0  0.234496 0.58911 0  0.206479 0.702638 0  0.679608 0.155818 0  0.62682 0.259978 0  0.690538 0.264164 0  0.448938 0.956308 0  0.808154 0.328403 0  0.379583 0.91913 0  0.308083 0.297769 0  0.312358 0.730249 0  0.563101 0.278576 0  0.435597 0.746198 0  0.385475 0.225229 0  0.572248 0.518034 0  0.357864 0.35422 0  0.497647 0.641694 0  0.458101 0.655768 0  0.360474 0.310727 0  0.467038 0.620139 0  0.47798 0.659909 0  0.41102 0.628072 0  0.48324 0.609015 0  0.427544 0.617941 0  0.388633 0.328253 0  0.405336 0.599404 0  0.408351 0.565178 0  0.42395 0.600985 0  0.431562 0.576523 0  0.424905 0.6551979999999999 0  0.398064 0.58782 0  0.427739 0.557934 0  0.5192909999999999 0.303443 0  0.53142 0.320293 0  0.5449000000000001 0.323642 0  0.537166 0.323513 0  0.153974 0.920841 0  0.9181859999999999 0.67343 0  0.759946 0.820588 0  0.5375259999999999 0.783091 0  0.816532 0.545843 0  0.813991 0.178083 0  0.836774 0.702023 0  0.149815 0.318856 0  0.662287 0.923338 0  0.680146 0.791192 0  0.708961 0.663172 0  0.9372779999999999 0.287318 0  0.574622 0.6881660000000001 0  0.5894740000000001 0.076262 0  0.502822 0.926683 0  0.222269 0.811068 0  0.380457 0.164786 0  0.15321 0.684154 0  0.458063 0.051413 0  0.161702 0.056026 0  0.199351 0.198818 0  0.298946 0.09553200000000001 0  0.902465 0.795949 0  0.121139 0.791477 0  0.906269 0.112287 0  0.056109 0.822332 0  0.512172 0.13237 0  0.940964 0.741805 0  0.888887 0.408777 0  0.354543 0.825964 0  0.808736 0.068638 0  0.068507 0.394071 0  0.719105 0.563843 0  0.247287 0.149664 0  0.293062 0.237128 0  0.240524 0.434997 0  0.141255 0.623289 0  0.945202 0.160621 0  0.502914 0.247629 0  0.144669 0.480811 0  0.665025 0.060817 0  0.728047 0.224344 0  0.861995 0.313312 0  0.200068 0.534235 0  0.253262 0.965623 0  0.893804 0.49307 0  0.604391 0.572456 0  0.947088 0.345347 0  0.439372 0.227307 0  0.629847 0.159823 0  0.273405 0.880181 0  0.302744 0.776823 0  0.781502 0.295365 0  0.275342 0.349602 0  0.7283849999999999 0.472798 0  0.229136 0.246478 0  0.807794 0.480346 0  0.709476 0.112786 0  0.275506 0.694991 0  0.771674 0.394419 0  0.449715 0.861802 0  0.419159 0.799696 0  0.674851 0.503139 0  0.280443 0.61016 0  0.572443 0.192538 0  0.393113 0.87525 0  0.405555 0.948428 0  0.330942 0.934103 0  0.540509 0.597101 0  0.312763 0.6689310000000001 0  0.254368 0.540179 0  0.595265 0.25915 0  0.606679 0.234099 0  0.657131 0.279138 0  0.722458 0.279478 0  0.333 0.308056 0  0.351529 0.246142 0  0.455714 0.7257940000000001 0  0.585239 0.295143 0  0.340062 0.72492 0  0.545593 0.293773 0  0.555449 0.545426 0  0.414311 0.737314 0  0.590854 0.502323 0  0.350507 0.368444 0  0.484423 0.625665 0  0.483899 0.674542 0  0.378137 0.317274 0  0.446416 0.646404 0  0.373532 0.347654 0  0.446876 0.619769 0  0.466106 0.666068 0  0.437545 0.609254 0  0.434988 0.565726 0  0.41462 0.656829 0  0.418803 0.556961 0  0.398425 0.327446 0  0.517803 0.310421 0  0.549516 0.322918 0  0.57701 0.842889 0  0.8291269999999999 0.773906 0  0.643235 0.684732 0  0.134281 0.207734 0  0.865997 0.055966 0  0.680959 0.723345 0  0.165229 0.8415550000000001 0  0.54558 0.959672 0  0.783726 0.656439 0  0.913315 0.595533 0  0.699439 0.860667 0  0.785839 0.125076 0  0.551673 0.037713 0  0.9200970000000001 0.223214 0  0.206406 0.299726 0  0.087064 0.596401 0  0.935644 0.394252 0  0.964557 0.252582 0  0.230124 0.928346 0  0.120579 0.271764 0  0.8572149999999999 0.524082 0  0.7670979999999999 0.5551469999999999 0  0.936094 0.507131 0  0.804064 0.59585 0  0.700565 0.608273 0  0.429773 0.174231 0  0.117746 0.727333 0  0.5389620000000001 0.730231 0  0.862761 0.359173 0  0.821444 0.284046 0  0.193552 0.35818 0  0.234923 0.505555 0  0.193209 0.421217 0  0.220144 0.755896 0  0.594015 0.131642 0  0.283813 0.195855 0  0.517519 0.213961 0  0.553509 0.639116 0  0.280391 0.378018 0  0.852183 0.436817 0  0.746983 0.197173 0  0.821806 0.221318 0  0.449853 0.828453 0  0.883758 0.453926 0  0.183484 0.589542 0  0.348384 0.129314 0  0.255254 0.838525 0  0.504849 0.798516 0  0.320344 0.863432 0  0.611669 0.525425 0  0.265864 0.804962 0  0.72056 0.521442 0  0.613372 0.6101220000000001 0  0.481262 0.881068 0  0.655778 0.191988 0  0.701921 0.196918 0  0.5658260000000001 0.5731810000000001 0  0.46914 0.240927 0  0.343219 0.173284 0  0.888786 0.278502 0  0.244113 0.6750930000000001 0  0.739546 0.417914 0  0.784023 0.355942 0  0.326805 0.265549 0  0.248616 0.6
[...]
<PointData  Vectors="f_21"> 
<DataArray  type="Float64"  Name="f_21"  NumberOfComponents="3" format="ascii">1.4641708919391139e+00 5.6210886374321123e-01 0.0000000000000000e+00  1.4091584263431243e+00 5.7902452948358496e-01 0.0000000000000000e+00  1.2372737444442043e+00 5.9269983761609413e-01 0.0000000000000000e+00  1.0873583645236677e+00 5.8047420953981599e-01 0.0000000000000000e+00  9.4457863889145377e-01 5.4939650448653832e-01 0.0000000000000000e+00  7.0629156736558985e-01 4.9079661715615663e-01 0.0000000000000000e+00  5.6350653099467751e-01 4.3306679300391165e-01 0.0000000000000000e+00  3.9884308433528171e-01 5.3729299799411301e-01 0.0000000000000000e+00  3.0464505596333219e-01 6.2833653597569061e-01 0.0000000000000000e+00  2.6787743130167252e-01 6.4996657225306198e-01 0.0000000000000000e+00  2.0957680385933283e-01 6.3916320704268503e-01 0.0000000000000000e+00  1.7744030585966489e-01 6.0617994326687574e-01 0.0000000000000000e+00  1.3669885377141039e-01 5.0268684046207934e-01 0.0000000000000000e+00  7.7430208644554355e-02 2.9509212991380640e-01 0.0000000000000000e+00  2.5329765535190552e-02 1.4439763383364718e-01 0.0000000000000000e+00  -2.8537455520720838e-03 3.5900808798999310e-02 0.0000000000000000e+00  -1.1781506287615248e-02 -6.6570786010698269e-02 0.0000000000000000e+00  3.0640497791783357e-03 -1.8772256063167975e-01 0.0000000000000000e+00  4.2124549173554578e-02 -2.9967620381164772e-01 0.0000000000000000e+00  1.1029928201656716e-01 -4.1948597995227949e-01 0.0000000000000000e+00  2.3861397240425342e-01 -5.6489825269334804e-01 0.0000000000000000e+00  3.4551445159204169e-01 -6.2196012223589892e-01 0.0000000000000000e+00  4.4885975724223198e-01 -6.1171924528317423e-01 0.0000000000000000e+00  7.6531680590434137e-01 -6.8963955332454874e-01 0.0000000000000000e+00  1.0235230671686244e+00 -7.7839400193184416e-01 0.0000000000000000e+00  1.2331638397906459e+00 -8.0636381071832997e-01 0.0000000000000000e+00  1.5486578357693199e+00 -8.0474325063741181e-01 0.0000000000000000e+00  1.7028808563930242e+00 -7.4331494765416206e-01 0.0000000000000000e+00  1.7688976043437152e+00 -6.7607947200228946e-01 0.0000000000000000e+00  1.8035075536965024e+00 -6.3357872732189935e-01 0.0000000000000000e+00  1.9344392194982762e+00 -6.8016514616262469e-01 0.0000000000000000e+00  2.1365734107503691e+00 -7.4616682566414516e-01 0.0000000000000000e+00  2.2425408801472702e+00 -8.2454457609824261e-01 0.0000000000000000e+00  2.2833776471050071e+00 -9.5841800646118747e-01 0.0000000000000000e+00  2.2796852346720877e+00 -1.0817785782081069e+00 0.0000000000000000e+00  2.3129410309003160e+00 -1.1984210249088221e+00 0.0000000000000000e+00  2.3817667429872844e+00 -1.2435630835199385e+00 0.0000000000000000e+00  2.5466605193121437e+00 -1.3021538208292964e+00 0.0000000000000000e+00  2.8016018090256387e+00 -1.3652164880384474e+00 0.0000000000000000e+00  2.9039495675003204e+00 -1.3568605168394077e+00 0.0000000000000000e+00  3.0438759900197683e+00 -1.3006982781550891e+00 0.0000000000000000e+00  3.1092308834049054e+00 -1.2058603468592819e+00 0.0000000000000000e+00  3.1186775606159349e+00 -1.1107925611033167e+00 0.0000000000000000e+00  3.0721879596016093e+00 -1.0154789767281784e+00 0.0000000000000000e+00  2.9786915829823362e+00 -9.5801701745123635e-01 0.0000000000000000e+00  2.8658265921312043e+00 -9.8678626815244685e-01 0.0000000000000000e+00  2.7512436586728497e+00 -1.0074879380223369e+00 0.0000000000000000e+00  2.6585620192229791e+00 -9.3593288172376055e-01 0.0000000000000000e+00  2.6777463670777841e+00 -8.1432280869231310e-01 0.0000000000000000e+00  2.7308312367600114e+00 -7.4768269747121496e-01 0.0000000000000000e+00  2.8085113076253347e+00 -6.9187357270078131e-01 0.0000000000000000e+00  2.8987863384330450e+00 -6.6062876248823865e-01 0.0000000000000000e+00  2.9871500210166682e+00 -6.1352667062439670e-01 0.0000000000000000e+00  3.0343287563677572e+00 -5.4262352468225594e-01 0.0000000000000000e+00  3.0795778192340286e+00 -4.2374715611000174e-01 0.0000000000000000e+00  3.1025599045748606e+00 -2.9174817455086482e-01 0.0000000000000000e+00  3.0943496398240073e+00 -1.7585318296476651e-01 0.0000000000000000e+00  3.0772438612507900e+00 -5.3906026976627219e-02 0.0000000000000000e+00  3.0639445243048615e+00 3.6486029456608254e-02 0.0000000000000000e+00  3.0404614775099477e+00 1.1747066824957147e-01 0.0000000000000000e+00  3.0000200011936005e+00 2.0065262401377179e-01 0.0000000000000000e+00  2.9388159813898231e+00 2.6549047375778562e-01 0.0000000000000000e+00  2.8529173940097725e+00 3.2303835135333864e-01 0.0000000000000000e+00  2.7712396719071259e+00 3.4776122369857071e-01 0.0000000000000000e+00  2.7449109920369303e+00 3.4520984944018146e-01 0.0000000000000000e+00  2.6862428809789827e+00 3.6668585155889388e-01 0.0000000000000000e+00  2.6041561404937417e+00 3.9519213295076533e-01 0.0000000000000000e+00  2.4034473932474900e+00 4.4474723534908778e-01 0.0000000000000000e+00  2.2380350406944118e+00 4.8475979665295427e-01 0.0000000000000000e+00  2.0798749837415746e+00 5.0515462517429899e-01 0.0000000000000000e+00  1.9946000138731146e+00 5.1695675769209115e-01 0.0000000000000000e+00  1.9015388569776512e+00 5.4427971148546495e-01 0.0000000000000000e+00  1.7850457387973493e+00 5.6985221741228753e-01 0.0000000000000000e+00  1.6231995081697574e+00 5.8211110752752804e-01 0.0000000000000000e+00  1.5259321772351009e+00 5.6732730374626228e-01 0.0000000000000000e+00  1.4920395269834001e+00 5.5849939553718442e-01 0.0000000000000000e+00  1.4675427010760058e+00 5.6077225581674939e-01 0.0000000000000000e+00  1.7435516118473191e+00 5.5504459892760527e-01 0.0000000000000000e+00  1.4835006676421700e+00 -1.9329795503369723e-01 0.0000000000000000e+00  0.0000000000000000e+00 0.0000000000000000e+00 0.0000000000000000e+00  0.0000000000000000e+00 0.0000000000000000e+00 0.0000000000000000e+00  1.4609247115256472e+00 5.6410346353584950e-01 0.0000000000000000e+00  1.4548296651244041e+00 5.6671265286812578e-01 0.0000000000000000e+00  1.4451967722951373e+00 5.7002195604175243e-01 0.0000000000000000e+00  1.4308257633032209e+00 5.7419410418495120e-01 0.0000000000000000e+00  1.3867293815530368e+00 5.8272843946477881e-01 0.0000000000000000e+00  1.3544897131888092e+00 5.8713206436401955e-01 0.0000000000000000e+00  1.3081293200639443e+00 5.9070676033238312e-01 0.0000000000000000e+00  1.1714624923637944e+00 5.8951570130195641e-01 0.0000000000000000e+00  8.5539300666036311e-01 5.2442570883859141e-01 0.0000000000000000e+00  7.8152576195351564e-01 5.0625593647979983e-01 0.0000000000000000e+00  4.9650046506798751e-01 4.6877479857526505e-01 0.0000000000000000e+00  4.4600470803493308e-01 4.9928682537301811e-01 0.0000000000000000e+00  3.5839403085713661e-01 5.7399081070565705e-01 0.0000000000000000e+00  3.2808487772616163e-01 6.0430235632759610e-01 0.0000000000000000e+00  2.4125106325821999e-01 6.4504341302612089e-01 0.0000000000000000e+00  1.6673103741323186e-01 5.8090323629097851e-01 0.0000000000000000e+00  1.5315169801187364e-01 5.4742011683659142e-01 0.0000000000000000e+00  1.1671605252239449e-01 4.5129711149102503e-01 0.0000000000000000e+00  9.5773433486850426e-02 3.8403462509063407e-01 0.0000000000000000e+00  5.0647599215694929e-02 2.2754575897173426e-01 0.0000000000000000e+00  -6.7431381325317860e-03 -1.3102601440725900e-01 0.0000000000000000e+00  1.7582613596083904e-01 -5.0197290850629572e-01 0.0000000000000000e+00  5.4650864608535199e-01 -6.4951739367350858e-01 0.0000000000000000e+00  6.4842676515727171e-01 -6.7823235544980698e-01 0.0000000000000000e+00  1.4150653636006068e+00 -8.2211008552486486e-01 0.0000000000000000e+00  1.6263195775043353e+00 -7.7690121694632563e-01 0.0000000000000000e+00  1.8445136235835391e+00 -6.3205200194649236e-01 0.0000000000000000e+00  2.2617869717843617e+00 -8.8192573466076807e-01 0.0000000000000000e+00  2.2982046848162438e+00 -1.1476592674309956e+00 0.0000000000000000e+00  2.4528084261632359e+00 -1.2683302152684257e+00 0.0000000000000000e+00  2.6527058326713866e+00 -1.3290542208359668e+00 0.0000000000000000e+00  2.7364521699693829e+00 -1.3497942583625144e+00 0.0000000000000000e+00  2.9647795908789534e+00 -1.3325723378368211e+00 0.0000000000000000e+00  2.9297250028019324e+00 -9.7047382401714721e-01 0.0000000000000000e+00  2.6674973521208174e+00 -8.8230770182109719e-01 0.0000000000000000e+00  2.9486363323905702e+00 -6.3347053267244269e-01 0.0000000000000000e+00  3.0932719264914614e+00 -3.4887186005799886e-01 0.0000000000000000e+00  3.0876958354198125e+00 -1.0843977461715017e-01 0.0000000000000000e+00  3.0248104795816588e+00 1.5498357657171805e-01 0.0000000000000000e+00  2.8917458213358076e+00 3.0121688483180165e-01 0.0000000000000000e+00  2.8056513000918417e+00 3.4161750997161744e-01 0.0000000000000000e+00  2.7207267764065532e+00 3.5014646974743235e-01 0.0000000000000000e+00  2.5244915598804392e+00 4.3142427404419242e-01 0.0000000000000000e+00  2.1595895267179599e+00 4.9281164935835586e-01 0.0000000000000000e+00  1.6980359756566830e+00 5.7830459996144301e-01 0.0000000000000000e+00  1.5610619330601512e+00 5.7477352975123064e-01 0.0000000000000000e+00  1.5037785098442655e+00 5.6155659123078228e-01 0.0000000000000000e+00  1.4845654243368174e+00 5.5842476647294093e-01 0.0000000000000000e+00  1.4773960042059726e+00 5.5923046995558168e-01 0.0000000000000000e+00  1.4717783587633082e+00 5.6000491260143936e-01 0.0000000000000000e+00  2.0654274247745721e+00 5.8289286266601004e-01 0.0000000000000000e+00  2.4059585802075216e+00 5.7872002370024833e-01 0.0000000000000000e+00  2.7383174964762298e+00 5.0545233093334885e-01 0.0000000000000000e+00  3.0129624860069932e+00 3.5385631649801041e-01 0.0000000000000000e+00  3.1243321191048370e+00 1.0431455553057578e-01 0.0000000000000000e+00  2.9598669318820110e+00 -1.5090448214967916e-01 0.0000000000000000e+00  2.5653395672928925e+00 -2.9183937331135146e-01 0.0000000000000000e+00  2.1477428226024204e+00 -2.8480034777320679e-01 0.0000000000000000e+00  1.8000992833532952e+00 -2.3289832133504712e-01 0.0000000000000000e+00  1.3933323353604976e+00 1.2653246338440607e-01 0.0000000000000000e+00  1.3285749720935800e+00 4.4551707424233172e-01 0.0000000000000000e+00  1.3035130330328064e+00 6.8918150563421765e-01 0.0000000000000000e+00  1.2736936142831106e+00 8.0092313010151184e-01 0.0000000000000000e+00  1.1990493093650016e+00 8.0517538756335005e-01 0.0000000000000000e+00  1.0846100918110753e+00 7.1953900743031840e-01 0.0000000000000000e+00  9.0370720277475314e-01 5.4565267090034508e-01 0.0000000000000000e+00  6.5268909915050999e-01 3.5241702724162810e-01 0.0000000000000000e+00  3.5649316447741408e-01 1.9391583650703392e-01 0.0000000000000000e+00  4.1930096187123134e-01 -2.4325924421320008e-01 0.0000000000000000e+00  7.5831705056343635e-01 -4.5904716622495839e-01 0.0000000000000000e+00  1.0213613765848326e+00 -7.0072082619149101e-01 0.0000000000000000e+00  1.1619368715610705e+00 -8.5021414428075837e-01 0.0000000000000000e+00  1.2395744317951858e+00 -7.8811206285924418e-01 0.0000000000000000e+00  1.3331296399683408e+00 -5.7795777399149284e-01 0.0000000000000000e+00  1.4460488250576180e+00 -3.0775281339989369e-01 0.0000000000000000e+00  1.5612716505795308e+00 -3.1024633152380323e-02 0.0000000000000000e+00  1.6575913503161577e+00 2.5001488826675861e-01 0.0000000000000000e+00  0.0000000000000000e+00 0.0000000000000000e+00 0.0000000000000000e+00  0.0000000000000000e+00 0.0000000000000000e+00 0.0000000000000000e+00  0.0000000000000000e+00 0.0000000000000000e+00 0.0000000000000000e+00  0.0000000000000000e+00 0.0000000000000000e+00 0.0000000000000000e+00  0.0000000000000000e+00 0.0000000000000000e+00 0.0000000000000000e+00  0.0000000000000000e+00 0.0000000000000000e+00 0.0000000000000000e+00  0.0000000000000000e+00 0.0000000000000000e+00 0.0000000000000000e+00  0.0000000000000000e+00 0.0000000000000000e+00 0.0000000000000000e+00  0.0000000000000000e+00 0.0000000000000000e+00 0.0000000000000000e+00  3.0546870629343581e+00 -4.9057378030229110e-01 0.0000000000000000e+00  2.3894963765854325e+00 -7.9640928052876273e-03 0.0000000000000000e+00  2.3693864158293990e-01 -8.4080152111487449e-02 0.0000000000000000e+00  2.5108379315080964e-01 6.4605919647549068e-02 0.0000000000000000e+00  1.6626803475780085e+00 5.6637875976133878e-01 0.0000000000000000e+00  1.3201480064353301e+00 7.3229321424047633e-01 0.0000000000000000e+00  3.0581824364372210e+00 1.5099547912883385e-01 0.0000000000000000e+00  1.4467206650326065e+00 -6.9952491763588620e-01 0.0000000000000000e+00  -6.1721695919107096e-03 -1.4905078913203742e-02 0.0000000000000000e+00  7.2564060339658998e-01 4.2753052368255684e-01 0.0000000000000000e+00  1.0279753700223753e+00 -7.2604760162904347e-01 0.0000000000000000e+00  1.5385796466013008e-01 6.6495264933900455e-02 0.0000000000000000e+00  2.1658852506424078e-01 -1.1003407243434647e-01 0.0000000000000000e+00  1.8767797853823689e+00 3.7426246007675956e-01 0.0000000000000000e+00  1.5912254953984044e+00 -1.3822100690815378e-03 0.0000000000000000e+00  2.6532741869454796e-01 3.7293010903131840e-01 0.0000000000000000e+00  2.4702553961570786e+00 -7.9244353971843284e-01 0.0000000000000000e+00  2.4803899687871027e+00 -1.0478149663969172e+00 0.0000000000000000e+00  2.8614791897062819e+00 -1.1750018987179527e+00 0.0000000000000000e+00  2.9016396675160512e+00 -4.9998858010700892e-01 0.0000000000000000e+00  2.4639700629570957e-01 5.6889063053520161e-01 0.0000000000000000e+00  1.4593767859309168e+00 5.6357661548021276e-01 0.0000000000000000e+00  4.5148959791744374e-02 -1.8547085916420930e-02 0.0000000000000000e+00  2.0823758301963875e+00 1.2156020533142511e-01 0.0000000000000000e+00  1.7573762724861439e+00 -3.9241886717695751e-01 0.0000000000000000e+00  2.8413533999828977e+00 1.7579536552416111e-01 0.0000000000000000e+00  2.6280229302284766e+00 -1.1128542460142643e-01 0.0000000000000000e+00  2.1651412335768612e+00 1.5132498353364179e-01 0.0000000000000000e+00  3.8556855020992792e-01 1.6961333463086734e-01 0.0000000000000000e+00  5.9720655689751845e-01 -3.4373536023312262e-01 0.0000000000000000e+00  1.1043121381785688e+00 7.2432836540754397e-01 0.0000000000000000e+00  1.6526363154651285e+00 2.7800513808361949e-01 0.0000000000000000e+00  8.2099032728689042e-02 -6.8875647727606584e-02 0.0000000000000000e+00  1.4381100297835714e+00 7.2665219327005959e-01 0.0000000000000000e+00  1.6789160133379177e+00 6.4249589682526687e-01 0.0000000000000000e+00  3.3103825735846237e-01 1.4507758452697492e-01 0.0000000000000000e+00  4.5952605996194107e-01 -2.6721876705260478e-01 0.0000000000000000e+00  8.3757205082008984e-02 4.2977424240421260e-04 0.0000000000000000e+00  9.4805063115374011e-02 -1.8690169437730013e-04 0.0000000000000000e+00  1.2286864859420807e+00 -8.0683990794470117e-01 0.0000000000000000e+00  3.0606436661068037e+00 6.2608810233075601e-02 0.0000000000000000e+00  1.4444465148647565e+00 6.5594174229270097e-01 0.0000000000000000e+00  2.8760564038384739e+00 1.7734864271023679e-01 0.0000000000000000e+00  3.0035753902593578e+00 1.5353802971586236e-01 0.0000000000000000e+00  1.5031469345479715e+00 -6.8472473974509318e-01 0.0000000000000000e+00  -2.8825150971870670e-03 -8.2751293426948005e-03 0.0000000000000000e+00  7.5133470971037430e-01 4.5663471630053215e-01 0.0000000000000000e+00  1.0858101485764260e+00 -7.8934710386787554e-01 0.0000000000000000e+00  1.5995551802820743e-01 3.0988770406875915e-01 0.0000000000000000e+00  2.8583980624284804e+00 -5.7092132542590546e-01 0.0000000000000000e+00  2.7407235272974179e-01 4.8017540562330729e-01 0.0000000000000000e+00  2.5963964591977171e+00 -6.4205397889738069e-01 0.0000000000000000e+00  2.3114800202641583e+00 -6.4261658634172114e-01 0.0000000000000000e+00  2.6569283603624694e+00 -1.1937247146736358e+00 0.0000000000000000e+00  2.4896054645606642e+00 -9.0970138981624304e-01 0.0000000000000000e+00  2.9696634801971267e+00 -1.1216267097982859e+00 0.0000000000000000e+00  2.9868792121296450e+00 -4.6801708039918988e-01 0.0000000000000000e+00  2.3691074309612254e+00 -1.0058505964562874e+00 0.0000000000000000e+00  2.9457689484437708e+00 -5.6993306446722314e-01 0.0000000000000000e+00  2.4319078992505085e+00 -1.1725268216180740e+00 0.0000000000000000e+00  2.9084265221474568e+00 -1.2762252904262223e+00 0.0000000000000000e+00  2.8229083778114745e+00 -1.0686740215297041e+00 0.0000000000000000e+00  2.0321513207653127e-01 5.4530153271897441e-01 0.0000000000000000e+00  2.6754471189313106e-01 6.0770055160671832e-01 0.0000000000000000e+00  2.1625159443362377e-01 5.9931911618970901e-01 0.0000000000000000e+00  1.4395414983813948e+00 5.6931514239602488e-01 0.0000000000000000e+00  1.4671333621081541e+00 5.6186508568975468e-01 0.0000000000000000e+00  1.4602640914819498e+00 5.6316201483736505e-01 0.0000000000000000e+00  2.0957914575511669e+00 -3.0600745903666815e-01 0.0000000000000000e+00  2.5337844999836396e+00 2.4333026526989243e-01 0.0000000000000000e+00  4.8017020684735678e-02 8.4381326875509043e-03 0.0000000000000000e+00  2.7944251873866865e+00 2.5605186902622611e-02 0.0000000000000000e+00  2.3306585674304447e-01 -9.4136001495051122e-02 0.0000000000000000e+00  1.7776186126272393e+00 -1.0598605818302684e-01 0.0000000000000000e+00  3.0673510421697960e+00 1.7019472546771236e-01 0.0000000000000000e+00  2.8011485382483889e+00 7.6274829800671476e-02 0.0000000000000000e+00  6.2079476668695699e-01 3.4194058847106457e-01 0.0000000000000000e+00  6.8577568466251966e-03 -1.9680879763154593e-02 0.0000000000000000e+00  4.9348740721545908e-01 2.2854373014175899e-01 0.0000000000000000e+00  5.8958496046552254e-02 -1.9611077677863516e-02 0.0000000000000000e+00  1.9244648452294015e+00 7.8188627145705306e-02 0.0000000000000000e+00  1.5065158496117799e+00 -5.8071368912444554e-01 0.0000000000000000e+00  1.5793136613216244e-01 4.3273355071395105e-02 0.0000000000000000e+00  1.1520410490008264e+00 6.7377870300706433e-01 0.0000000000000000e+00  2.1003919927810060e+00 3.4644341873552698e-01 0.0000000000000000e+00  1.2117942983692958e+00 7.7883977854536435e-01 0.0000000000000000e+00  8.1121148758682160e-01 -5.0570435553189075e-01 0.0000000000000000e+00  2.0198592718051067e+00 3.7769219507687274e-01 0.0000000000000000e+00  1.4517953962360286e+00 5.8002195498495168e-01 0.0000000000000000e+00  9.3387465355129495e-01 6.1267370481345607e-01 0.0000000000000000e+00  -1.1926226865818476e-02 -6.4847247795807566e-03 0.0000000000000000e+00  1.8370889618036688e+00 1.5560727046538578e-01 0.0000000000000000e+00  2.6399424441943919e+00 -3.3701374804777329e-01 0.0000000000000000e+00  9.4483158947284346e-02 6.8785723353837216e-02 0.0000000000000000e+00  8.8038466952600947e-01 -6.0237766836369566e-01 0.0000000000000000e+00  1.2205856065454332e+00 -7.8262941863917179e-01 0.0000000000000000e+00  2.8693099140745164e+00 -8.7972254690596802e-02 0.0000000000000000e+00  2.9584672239259963e-01 1.3598437528833704e-01 0.0000000000000000e+00  1.5729257323370735e-01 -2.3131313694213257e-01 0.0000000000000000e+00  2.9910944486195432e+00 2.1662334987340387e-01 0.0000000000000000e+00  1.5017093528117971e+00 6.9317562242298780e-01 0.0000000000000000e+00  1.0357313177925868e-02 -8.2738913202345929e-02 0.0000000000000000e+00  2.1158093689276797e-01 -1.0841167575334389e-01 0.0000000000000000e+00  1.5639386433129250e+00 6.6670669787172543e-01 0.0000000000000000e+00  1.6406741502399600e+00 6.3814478949568976e-01 0.0000000000000000e+00  1.8373377522930259e+00 5.9241612699545687e-01 0.0000000000000000e+00  1.2238297664566131e+00 -8.2241452106105306e-01 0.0000000000000000e+00  2.5203067741181866e+00 2.0766298872785616e-01 0.0000000000000000e+00  1.1049910545390544e+00 -7.9051823084865414e-01 0.0000000000000000e+00  3.7996102385547942e-01 2.6333757787361817e-01 0.0000000000000000e+00  4.6218760837882561e-01 -3.8965930474262678e-01 0.0000000000000000e+00  1.4783200832749275e+00 6.0626452291371735e-01 0.0000000000000000e+00  1.6039192938725506e+00 -6.6865925621002242e-01 0.0000000000000000e+00  8.6959650686645884e-01 5.6504775123124518e-01 0.0000000000000000e+00  2.9906852111656952e+00 -3.4328112212673528e-01 0.0000000000000000e+00  1.9291350777465660