<?xml version="1.0"?>
<VTKFile type="UnstructuredGrid"  version="0.1"  >
<UnstructuredGrid>
<Piece  NumberOfPoints="2868" NumberOfCells="5400">
<Points>
<DataArray  type="Float64"  NumberOfComponents="3"  format="ascii">0.534923 0.326073 0  0.510642 0.314196 0  0.466125 0.293082 0  0.436448 0.281205 0  0.409468 0.275927 0  0.368998 0.270648 0  0.35281 0.275927 0  0.381139 0.302319 0  0.405421 0.326073 0  0.410817 0.33531 0  0.408119 0.349826 0  0.400025 0.357744 0  0.375743 0.368301 0  0.329878 0.392055 0  0.297502 0.432963 0  0.282663 0.476511 0  0.285361 0.524018 0  0.298851 0.572845 0  0.317737 0.6045160000000001 0  0.337972 0.6361869999999999 0  0.360904 0.674457 0  0.368998 0.69953 0  0.359555 0.7219640000000001 0  0.360904 0.757594 0  0.370347 0.766831 0  0.381139 0.762872 0  0.390582 0.741758 0  0.404072 0.720644 0  0.424307 0.707448 0  0.447239 0.702169 0  0.480964 0.704808 0  0.479615 0.6889729999999999 0  0.468823 0.675776 0  0.447239 0.6691780000000001 0  0.428354 0.6691780000000001 0  0.410817 0.6639 0  0.404072 0.653343 0  0.395978 0.628269 0  0.387884 0.59132 0  0.389233 0.576804 0  0.397327 0.557009 0  0.410817 0.547772 0  0.424307 0.546452 0  0.437797 0.55305 0  0.44589 0.5662469999999999 0  0.441843 0.582082 0  0.439145 0.5979179999999999 0  0.449937 0.609795 0  0.468823 0.603196 0  0.479615 0.59 0  0.489058 0.570205 0  0.494454 0.546452 0  0.505246 0.522699 0  0.522783 0.509502 0  0.55246 0.494986 0  0.586185 0.484429 0  0.615863 0.48047 0  0.64554 0.473872 0  0.6671240000000001 0.461995 0  0.683312 0.451438 0  0.696802 0.435603 0  0.703547 0.417128 0  0.7116400000000001 0.393374 0  0.7183850000000001 0.37226 0  0.7251300000000001 0.364342 0  0.739969 0.353785 0  0.7453650000000001 0.344548 0  0.7453650000000001 0.327393 0  0.737271 0.318155 0  0.7183850000000001 0.316835 0  0.7008490000000001 0.319475 0  0.677916 0.318155 0  0.650936 0.316835 0  0.610467 0.318155 0  0.57944 0.324753 0  0.559205 0.328712 0  0.5389699999999999 0.326073 0  1 1 0  1 0 0  0 0 0  0 1 0  0.532238 0.32476 0  0.528748 0.323052 0  0.52421 0.320833 0  0.518311 0.317947 0  0.503447 0.310783 0  0.494093 0.306347 0  0.481933 0.30058 0  0.452151 0.28749 0  0.392327 0.273691 0  0.379141 0.271971 0  0.360474 0.283066 0  0.369797 0.291752 0  0.391424 0.31238 0  0.399335 0.32012 0  0.40958 0.341964 0  0.393939 0.36039 0  0.386028 0.36383 0  0.364248 0.374254 0  0.349304 0.381994 0  0.315801 0.409841 0  0.292986 0.551616 0  0.350934 0.657818 0  0.360127 0.737055 0  0.360566 0.748664 0  0.385245 0.753692 0  0.396447 0.732578 0  0.466301 0.703661 0  0.459439 0.672908 0  0.418442 0.666195 0  0.400553 0.642441 0  0.39255 0.612619 0  0.389913 0.60058 0  0.392752 0.568197 0  0.444131 0.573132 0  0.458149 0.606926 0  0.5005540000000001 0.533026 0  0.571522 0.489019 0  0.632637 0.476741 0  0.689177 0.444553 0  0.708121 0.403702 0  0.715453 0.38144 0  0.732406 0.359166 0  0.7453650000000001 0.337089 0  0.72906 0.317581 0  0.629879 0.317522 0  0.59293 0.321884 0  0.568003 0.326991 0  0.55202 0.327775 0  0.546493 0.327054 0  0.542241 0.326499 0  1 0.9 0  1 0.8 0  1 0.7 0  1 0.6 0  1 0.5 0  1 0.4 0  1 0.3 0  1 0.2 0  1 0.1 0  0.9 0 0  0.8 0 0  0.7 0 0  0.6 0 0  0.5 0 0  0.4 0 0  0.3 0 0  0.2 0 0  0.1 0 0  0.1 1 0  0.2 1 0  0.3 1 0  0.4 1 0  0.5 1 0  0.6 1 0  0.7 1 0  0.8 1 0  0.9 1 0  0 0.1 0  0 0.2 0  0 0.3 0  0 0.4 0  0 0.5 0  0 0.6 0  0 0.7 0  0 0.8 0  0 0.9 0  0.535686 0.5031910000000001 0  0.753987 0.733359 0  0.167145 0.741436 0  0.173378 0.257204 0  0.733497 0.159862 0  0.554096 0.15788 0  0.849187 0.479053 0  0.488793 0.838452 0  0.138507 0.5592 0  0.30686 0.154944 0  0.348904 0.890523 0  0.058006 0.065099 0  0.06984899999999999 0.937917 0  0.93633 0.939704 0  0.934625 0.053613 0  0.343397 0.333452 0  0.473272 0.639943 0  0.433266 0.638072 0  0.415174 0.58269 0  0.533435 0.545042 0  0.390848 0.340652 0  0.53655 0.320242 0  0.127966 0.393775 0  0.83861 0.850455 0  0.635242 0.8551299999999999 0  0.852158 0.633441 0  0.653427 0.626848 0  0.861226 0.24292 0  0.166128 0.12976 0  0.216875 0.8698709999999999 0  0.458305 0.11179 0  0.84446 0.101633 0  0.202024 0.642528 0  0.644825 0.115855 0  0.671342 0.218358 0  0.251354 0.286186 0  0.262388 0.75153 0  0.063044 0.751571 0  0.068189 0.242962 0  0.435781 0.9053949999999999 0  0.934144 0.451133 0  0.568393 0.237622 0  0.814984 0.395506 0  0.752951 0.517227 0  0.456254 0.780699 0  0.073352 0.531116 0  0.337731 0.206071 0  0.363213 0.960371 0  0.330742 0.363592 0  0.516613 0.55705 0  0.369057 0.332992 0  0.500926 0.617309 0  0.498004 0.665534 0  0.412142 0.61178 0  0.454233 0.6366039999999999 0  0.422782 0.567496 0  0.541193 0.5214800000000001 0  0.439761 0.65557 0  0.5163 0.533672 0  0.414775 0.64562 0  0.40073 0.576135 0  0.430362 0.5880339999999999 0  0.385432 0.351492 0  0.400298 0.335397 0  0.398325 0.348194 0  0.528702 0.314885 0  0.540814 0.322334 0  0.534477 0.322953 0  0.619095 0.743583 0  0.885162 0.737972 0  0.08076 0.668849 0  0.90734 0.36634 0  0.09468699999999999 0.868937 0  0.759838 0.912152 0  0.901518 0.540898 0  0.747285 0.607479 0  0.229182 0.071641 0  0.06915399999999999 0.450091 0  0.244775 0.203309 0  0.076534 0.331755 0  0.897847 0.167826 0  0.578909 0.911415 0  0.07713299999999999 0.146341 0  0.477215 0.203448 0  0.922631 0.869341 0  0.517415 0.074785 0  0.297026 0.827793 0  0.7832710000000001 0.246505 0  0.74519 0.061079 0  0.36033 0.069068 0  0.210313 0.475228 0  0.859426 0.928758 0  0.5745479999999999 0.609182 0  0.243069 0.383398 0  0.283099 0.934598 0  0.417416 0.843141 0  0.643942 0.553164 0  0.112687 0.079336 0  0.281357 0.658386 0  0.765043 0.436177 0  0.611361 0.198486 0  0.234496 0.58911 0  0.206479 0.702638 0  0.679608 0.155818 0  0.62682 0.259978 0  0.690538 0.264164 0  0.448938 0.956308 0  0.808154 0.328403 0  0.379583 0.91913 0  0.308083 0.297769 0  0.312358 0.730249 0  0.563101 0.278576 0  0.435597 0.746198 0  0.385475 0.225229 0  0.572248 0.518034 0  0.357864 0.35422 0  0.497647 0.641694 0  0.458101 0.655768 0  0.360474 0.310727 0  0.467038 0.620139 0  0.47798 0.659909 0  0.41102 0.628072 0  0.48324 0.609015 0  0.427544 0.617941 0  0.388633 0.328253 0  0.405336 0.599404 0  0.408351 0.565178 0  0.42395 0.600985 0  0.431562 0.576523 0  0.424905 0.6551979999999999 0  0.398064 0.58782 0  0.427739 0.557934 0  0.5192909999999999 0.303443 0  0.53142 0.320293 0  0.5449000000000001 0.323642 0  0.537166 0.323513 0  0.153974 0.920841 0  0.9181859999999999 0.67343 0  0.759946 0.820588 0  0.5375259999999999 0.783091 0  0.816532 0.545843 0  0.813991 0.178083 0  0.836774 0.702023 0  0.149815 0.318856 0  0.662287 0.923338 0  0.680146 0.791192 0  0.708961 0.663172 0  0.9372779999999999 0.287318 0  0.574622 0.6881660000000001 0  0.5894740000000001 0.076262 0  0.502822 0.926683 0  0.222269 0.811068 0  0.380457 0.164786 0  0.15321 0.684154 0  0.458063 0.051413 0  0.161702 0.056026 0  0.199351 0.198818 0  0.298946 0.09553200000000001 0  0.902465 0.795949 0  0.121139 0.791477 0  0.906269 0.112287 0  0.056109 0.822332 0  0.512172 0.13237 0  0.940964 0.741805 0  0.888887 0.408777 0  0.354543 0.825964 0  0.808736 0.068638 0  0.068507 0.394071 0  0.719105 0.563843 0  0.247287 0.149664 0  0.293062 0.237128 0  0.240524 0.434997 0  0.141255 0.623289 0  0.945202 0.160621 0  0.502914 0.247629 0  0.144669 0.480811 0  0.665025 0.060817 0  0.728047 0.224344 0  0.861995 0.313312 0  0.200068 0.534235 0  0.253262 0.965623 0  0.893804 0.49307 0  0.604391 0.572456 0  0.947088 0.345347 0  0.439372 0.227307 0  0.629847 0.159823 0  0.273405 0.880181 0  0.302744 0.776823 0  0.781502 0.295365 0  0.275342 0.349602 0  0.7283849999999999 0.472798 0  0.229136 0.246478 0  0.807794 0.480346 0  0.709476 0.112786 0  0.275506 0.694991 0  0.771674 0.394419 0  0.449715 0.861802 0  0.419159 0.799696 0  0.674851 0.503139 0  0.280443 0.61016 0  0.572443 0.192538 0  0.393113 0.87525 0  0.405555 0.948428 0  0.330942 0.934103 0  0.540509 0.597101 0  0.312763 0.6689310000000001 0  0.254368 0.540179 0  0.595265 0.25915 0  0.606679 0.234099 0  0.657131 0.279138 0  0.722458 0.279478 0  0.333 0.308056 0  0.351529 0.246142 0  0.455714 0.7257940000000001 0  0.585239 0.295143 0  0.340062 0.72492 0  0.545593 0.293773 0  0.555449 0.545426 0  0.414311 0.737314 0  0.590854 0.502323 0  0.350507 0.368444 0  0.484423 0.625665 0  0.483899 0.674542 0  0.378137 0.317274 0  0.446416 0.646404 0  0.373532 0.347654 0  0.446876 0.619769 0  0.466106 0.666068 0  0.437545 0.609254 0  0.434988 0.565726 0  0.41462 0.656829 0  0.418803 0.556961 0  0.398425 0.327446 0  0.517803 0.310421 0  0.549516 0.322918 0  0.57701 0.842889 0  0.8291269999999999 0.773906 0  0.643235 0.684732 0  0.134281 0.207734 0  0.865997 0.055966 0  0.680959 0.723345 0  0.165229 0.8415550000000001 0  0.54558 0.959672 0  0.783726 0.656439 0  0.913315 0.595533 0  0.699439 0.860667 0  0.785839 0.125076 0  0.551673 0.037713 0  0.9200970000000001 0.223214 0  0.206406 0.299726 0  0.087064 0.596401 0  0.935644 0.394252 0  0.964557 0.252582 0  0.230124 0.928346 0  0.120579 0.271764 0  0.8572149999999999 0.524082 0  0.7670979999999999 0.5551469999999999 0  0.936094 0.507131 0  0.804064 0.59585 0  0.700565 0.608273 0  0.429773 0.174231 0  0.117746 0.727333 0  0.5389620000000001 0.730231 0  0.862761 0.359173 0  0.821444 0.284046 0  0.193552 0.35818 0  0.234923 0.505555 0  0.193209 0.421217 0  0.220144 0.755896 0  0.594015 0.131642 0  0.283813 0.195855 0  0.517519 0.213961 0  0.553509 0.639116 0  0.280391 0.378018 0  0.852183 0.436817 0  0.746983 0.197173 0  0.821806 0.221318 0  0.449853 0.828453 0  0.883758 0.453926 0  0.183484 0.589542 0  0.348384 0.129314 0  0.255254 0.838525 0  0.504849 0.798516 0  0.320344 0.863432 0  0.611669 0.525425 0  0.265864 0.804962 0  0.72056 0.521442 0  0.613372 0.6101220000000001 0  0.481262 0.881068 0  0.655778 0.191988 0  0.701921 0.196918 0  0.5658260000000001 0.5731810000000001 0  0.46914 0.240927 0  0.343219 0.173284 0  0.888786 0.278502 0  0.244113 0.6750930000000001 0  0.739546 0.417914 0  0.784023 0.355942 0  0.326805 0.265549 0  0.248616 0.6
[...]
<PointData  Vectors="f_21"> 
<DataArray  type="Float64"  Name="f_21"  NumberOfComponents="3" format="ascii">3.5690499327316566e-01 -4.5950308559991035e-02 0.0000000000000000e+00  3.4939205877383495e-01 -4.6658373936106813e-02 0.0000000000000000e+00  3.1519999341570787e-01 -3.8902674508397059e-02 0.0000000000000000e+00  2.7755654915604761e-01 -2.9879003062543253e-02 0.0000000000000000e+00  2.3835168396595283e-01 -2.2575802709952922e-02 0.0000000000000000e+00  1.6346881769587632e-01 -4.0383796172056676e-03 0.0000000000000000e+00  1.1589940732688653e-01 1.7465626158923917e-03 0.0000000000000000e+00  5.9411445043766595e-02 3.3753143831338372e-02 0.0000000000000000e+00  3.7842596222575089e-02 4.9217594098315394e-02 0.0000000000000000e+00  3.0569546118363124e-02 5.3225953611452846e-02 0.0000000000000000e+00  1.9163427342199436e-02 5.0939582457426510e-02 0.0000000000000000e+00  1.3034623149930648e-02 4.4439800822943493e-02 0.0000000000000000e+00  6.3649935674433980e-03 2.4748851759306658e-02 0.0000000000000000e+00  1.4608012363634113e-03 -4.2604298872185630e-03 0.0000000000000000e+00  3.1876366235488444e-04 -8.8306534816823511e-03 0.0000000000000000e+00  2.0317442566728880e-04 -4.2750088175718265e-03 0.0000000000000000e+00  -2.0144934518855035e-04 1.2281608603959620e-03 0.0000000000000000e+00  -1.0654616974837309e-03 5.2782306298907646e-03 0.0000000000000000e+00  -1.6198302235177426e-03 4.5203982616856308e-03 0.0000000000000000e+00  1.1468536286250470e-03 -2.7062541387444690e-03 0.0000000000000000e+00  1.4821806672499039e-02 -1.9622681462746566e-02 0.0000000000000000e+00  3.1188110440782870e-02 -2.8545781892452014e-02 0.0000000000000000e+00  5.0367616482002768e-02 -2.5657906036138874e-02 0.0000000000000000e+00  1.1795685323772363e-01 -3.1096005180243112e-02 0.0000000000000000e+00  1.7416035692390100e-01 -4.1215537583057321e-02 0.0000000000000000e+00  2.2114392940659905e-01 -3.9926803567270734e-02 0.0000000000000000e+00  2.8695014120062440e-01 -3.4722873849971733e-02 0.0000000000000000e+00  3.1522003801656956e-01 -2.1225815455307620e-02 0.0000000000000000e+00  3.2486535535934458e-01 -1.1529117452211890e-02 0.0000000000000000e+00  3.3001266026941711e-01 -1.1377455373229891e-02 0.0000000000000000e+00  3.6859071219440931e-01 -4.6891020305159042e-02 0.0000000000000000e+00  4.3037068100238229e-01 -6.8112566755959156e-02 0.0000000000000000e+00  4.7631087539735950e-01 -7.9208937126608092e-02 0.0000000000000000e+00  5.2084739629196364e-01 -6.0945932511504972e-02 0.0000000000000000e+00  5.4796487517204240e-01 -1.8323048355102716e-02 0.0000000000000000e+00  5.4588727445810081e-01 2.6725587837405872e-02 0.0000000000000000e+00  5.2672100225127583e-01 4.5440605736049640e-02 0.0000000000000000e+00  4.7148999389250645e-01 9.1399042113256085e-02 0.0000000000000000e+00  3.2091058071971840e-01 1.6442213684706120e-01 0.0000000000000000e+00  2.4697071321631442e-01 1.6440978560308936e-01 0.0000000000000000e+00  1.4289733258562481e-01 1.2794618597577986e-01 0.0000000000000000e+00  9.4051144197608974e-02 5.9973454982919325e-02 0.0000000000000000e+00  8.6632174701850306e-02 -8.8943547790674825e-03 0.0000000000000000e+00  1.2029816587477225e-01 -7.8622739685935847e-02 0.0000000000000000e+00  1.9014279351467128e-01 -1.2162255254214016e-01 0.0000000000000000e+00  2.7789021393281443e-01 -9.7616681663225860e-02 0.0000000000000000e+00  3.7155042492458962e-01 -6.8139033031485163e-02 0.0000000000000000e+00  4.5294846558114371e-01 -7.9417112494091502e-02 0.0000000000000000e+00  4.9748306668384612e-01 -8.5001342467106389e-02 0.0000000000000000e+00  5.2754611906053561e-01 -8.0523388945610161e-02 0.0000000000000000e+00  5.5588833403483440e-01 -7.4463764384181369e-02 0.0000000000000000e+00  5.8123571786601835e-01 -7.0087034957762612e-02 0.0000000000000000e+00  6.0271208145180799e-01 -6.0502688144912678e-02 0.0000000000000000e+00  6.1362391531613314e-01 -4.6073380688368630e-02 0.0000000000000000e+00  6.2482583360942723e-01 -2.4307957619073443e-02 0.0000000000000000e+00  6.3163096332045321e-01 -2.5872512859180237e-03 0.0000000000000000e+00  6.3322677922798576e-01 1.2938495909541313e-02 0.0000000000000000e+00  6.3792291052046968e-01 2.3927893414639693e-02 0.0000000000000000e+00  6.4674012307465334e-01 2.9383812826210744e-02 0.0000000000000000e+00  6.5536787137669328e-01 3.3657647237285253e-02 0.0000000000000000e+00  6.6581470572995005e-01 3.9569566529093429e-02 0.0000000000000000e+00  6.7366394450660660e-01 4.5434695487475918e-02 0.0000000000000000e+00  6.7840631197325763e-01 5.4115986312333747e-02 0.0000000000000000e+00  6.7882120039936433e-01 6.0219465614484921e-02 0.0000000000000000e+00  6.7897714833743750e-01 6.3005826816212945e-02 0.0000000000000000e+00  6.7519922657980125e-01 7.2502482271249793e-02 0.0000000000000000e+00  6.6482905389819713e-01 7.8836532589718261e-02 0.0000000000000000e+00  6.2696762256923411e-01 8.5326821791960245e-02 0.0000000000000000e+00  5.8594070514780938e-01 8.5236982333620301e-02 0.0000000000000000e+00  5.3611730715168937e-01 6.8661409094554982e-02 0.0000000000000000e+00  5.0599778154703590e-01 5.3114628518074775e-02 0.0000000000000000e+00  4.7852738269620798e-01 3.8448067510906681e-02 0.0000000000000000e+00  4.4499899054849751e-01 2.1963160478896633e-02 0.0000000000000000e+00  3.9911883557352990e-01 -4.8164279109052825e-03 0.0000000000000000e+00  3.7073761472760641e-01 -2.6925331815107742e-02 0.0000000000000000e+00  3.6127800057580184e-01 -3.8488208463119761e-02 0.0000000000000000e+00  3.5749872083166045e-01 -4.5124699304762712e-02 0.0000000000000000e+00  7.8267706995198350e-01 -2.1102408547004492e-01 0.0000000000000000e+00  7.8553641960401865e-01 1.6995699240666748e-01 0.0000000000000000e+00  0.0000000000000000e+00 0.0000000000000000e+00 0.0000000000000000e+00  0.0000000000000000e+00 0.0000000000000000e+00 0.0000000000000000e+00  3.5666921248687611e-01 -4.6232876390005881e-02 0.0000000000000000e+00  3.5599781054475116e-01 -4.6503211451901061e-02 0.0000000000000000e+00  3.5475753269887261e-01 -4.6768821744775223e-02 0.0000000000000000e+00  3.5274252412670171e-01 -4.6853239467169891e-02 0.0000000000000000e+00  3.4562080762452280e-01 -4.6132940042266431e-02 0.0000000000000000e+00  3.3976947814398706e-01 -4.5095544033046317e-02 0.0000000000000000e+00  3.3069159428530220e-01 -4.2770266001785823e-02 0.0000000000000000e+00  2.9950284062206084e-01 -3.4796245512145635e-02 0.0000000000000000e+00  2.1216820924941332e-01 -1.6464970293919204e-02 0.0000000000000000e+00  1.8896850267175475e-01 -1.0439260846162954e-02 0.0000000000000000e+00  9.0557075599075748e-02 1.8240126983079922e-02 0.0000000000000000e+00  7.3302550866510940e-02 2.6534035184598716e-02 0.0000000000000000e+00  4.9246959746495636e-02 3.9767100092894268e-02 0.0000000000000000e+00  4.2642099019693153e-02 4.4920434125148796e-02 0.0000000000000000e+00  2.5346691273842932e-02 5.2183813494045515e-02 0.0000000000000000e+00  1.1075924972283515e-02 3.9506072804759082e-02 0.0000000000000000e+00  8.7671164132749127e-03 3.3075399887782311e-02 0.0000000000000000e+00  3.8059625952066734e-03 1.5781861195362335e-02 0.0000000000000000e+00  2.1268503028655655e-03 5.7074815730280672e-03 0.0000000000000000e+00  5.9272189309238796e-04 -8.3541664524704063e-03 0.0000000000000000e+00  -5.3935813089503351e-04 3.8538031328573794e-03 0.0000000000000000e+00  7.0852965134929917e-03 -1.1446115335646195e-02 0.0000000000000000e+00  7.0038154745657000e-02 -3.0096675916477411e-02 0.0000000000000000e+00  9.1746966365389385e-02 -3.2859392178566343e-02 0.0000000000000000e+00  2.5984051839042926e-01 -4.0532060633669272e-02 0.0000000000000000e+00  3.0180636512393982e-01 -2.8114192581088063e-02 0.0000000000000000e+00  3.4140614599939351e-01 -2.1911731152657151e-02 0.0000000000000000e+00  4.9797782129836299e-01 -7.4250947477979931e-02 0.0000000000000000e+00  5.4845345990145145e-01 7.1463650504068749e-03 0.0000000000000000e+00  5.0651735050139957e-01 6.1551949090968158e-02 0.0000000000000000e+00  4.1977368582360020e-01 1.2253300509309174e-01 0.0000000000000000e+00  3.6656760578357872e-01 1.4770816329432804e-01 0.0000000000000000e+00  2.0183992666184741e-01 1.4936615701229466e-01 0.0000000000000000e+00  2.2774608927958898e-01 -1.1190737839474590e-01 0.0000000000000000e+00  4.7439792230013428e-01 -8.4370516168417051e-02 0.0000000000000000e+00  5.9369524273725338e-01 -6.4666800572344835e-02 0.0000000000000000e+00  6.2901691127475556e-01 -1.1579767498690247e-02 0.0000000000000000e+00  6.3548702810852919e-01 1.9833956198480190e-02 0.0000000000000000e+00  6.6028881265916950e-01 3.5870239945820483e-02 0.0000000000000000e+00  6.7707066090140189e-01 5.0349152472887550e-02 0.0000000000000000e+00  6.7882579367388629e-01 5.8053738128273025e-02 0.0000000000000000e+00  6.7787446957339859e-01 6.6947005714947480e-02 0.0000000000000000e+00  6.5177561026199349e-01 8.5072465104290326e-02 0.0000000000000000e+00  5.6105946311022359e-01 7.7281979884904123e-02 0.0000000000000000e+00  4.1983518700825034e-01 7.7176036001666863e-03 0.0000000000000000e+00  3.8086915728060422e-01 -1.7585952916681122e-02 0.0000000000000000e+00  3.6454192539779801e-01 -3.3969365098415104e-02 0.0000000000000000e+00  3.6017252746260825e-01 -4.1346660517786321e-02 0.0000000000000000e+00  3.5903689749871442e-01 -4.3118141753410361e-02 0.0000000000000000e+00  3.5815790907375511e-01 -4.4316692689951226e-02 0.0000000000000000e+00  7.6904018130431395e-01 -1.7067295787984776e-01 0.0000000000000000e+00  7.5962920419566593e-01 -1.1588514474853977e-01 0.0000000000000000e+00  7.6592176069602891e-01 -4.6713611440054932e-02 0.0000000000000000e+00  8.0407177948369690e-01 1.1448613241583874e-02 0.0000000000000000e+00  8.4850453077842258e-01 4.1479638859804858e-02 0.0000000000000000e+00  8.5965584428905395e-01 5.1101569545233878e-02 0.0000000000000000e+00  8.3340361967805077e-01 6.5615716145954586e-02 0.0000000000000000e+00  7.9952910421228751e-01 9.7325624113827419e-02 0.0000000000000000e+00  7.8481551981360154e-01 1.3641800681797719e-01 0.0000000000000000e+00  6.9489452747039282e-01 1.7064330024934446e-01 0.0000000000000000e+00  6.1241769296186943e-01 1.6173092384684620e-01 0.0000000000000000e+00  5.2710331588705528e-01 1.3446892566161128e-01 0.0000000000000000e+00  4.2999675045182606e-01 1.0159530228480634e-01 0.0000000000000000e+00  3.2580005382643368e-01 7.8433439449017275e-02 0.0000000000000000e+00  2.3046294469789383e-01 6.3858387995644694e-02 0.0000000000000000e+00  1.4345929044909442e-01 4.3145137882406329e-02 0.0000000000000000e+00  7.3284505029756711e-02 2.2349282058825373e-02 0.0000000000000000e+00  2.4612861694458074e-02 7.7717664435811313e-03 0.0000000000000000e+00  2.5255681402946536e-02 -7.7851021281942221e-03 0.0000000000000000e+00  7.5710517371070901e-02 -2.2294571733408625e-02 0.0000000000000000e+00  1.5262591565883807e-01 -4.7178588931991589e-02 0.0000000000000000e+00  2.4301100195277750e-01 -7.5030075472712399e-02 0.0000000000000000e+00  3.3422588069945425e-01 -9.8992717364456070e-02 0.0000000000000000e+00  4.2397776720375513e-01 -1.2649544348849343e-01 0.0000000000000000e+00  5.1080709502546040e-01 -1.5110851965134914e-01 0.0000000000000000e+00  5.9931952645595199e-01 -1.7235694459899564e-01 0.0000000000000000e+00  6.9026707515411478e-01 -1.9285281469936277e-01 0.0000000000000000e+00  0.0000000000000000e+00 0.0000000000000000e+00 0.0000000000000000e+00  0.0000000000000000e+00 0.0000000000000000e+00 0.0000000000000000e+00  0.0000000000000000e+00 0.0000000000000000e+00 0.0000000000000000e+00  0.0000000000000000e+00 0.0000000000000000e+00 0.0000000000000000e+00  0.0000000000000000e+00 0.0000000000000000e+00 0.0000000000000000e+00  0.0000000000000000e+00 0.0000000000000000e+00 0.0000000000000000e+00  0.0000000000000000e+00 0.0000000000000000e+00 0.0000000000000000e+00  0.0000000000000000e+00 0.0000000000000000e+00 0.0000000000000000e+00  0.0000000000000000e+00 0.0000000000000000e+00 0.0000000000000000e+00  6.1856075389971532e-01 -3.6322238608961228e-02 0.0000000000000000e+00  5.4132852306353607e-01 -4.7919924907232798e-02 0.0000000000000000e+00  2.3242594887080772e-02 1.2131841898142245e-02 0.0000000000000000e+00  3.1867311416305562e-02 -1.1790538421647753e-02 0.0000000000000000e+00  5.4856176473519669e-01 1.0571176819817595e-01 0.0000000000000000e+00  3.7403365161225832e-01 2.7613854316300222e-02 0.0000000000000000e+00  7.2418767975766429e-01 3.0241817243040897e-02 0.0000000000000000e+00  2.9443898586697925e-01 -4.4661861419692084e-02 0.0000000000000000e+00  1.5615705315085140e-03 1.5081375253995018e-03 0.0000000000000000e+00  1.2876549815248547e-01 8.5264693355891763e-03 0.0000000000000000e+00  1.7366398081767204e-01 -3.4372523699206972e-02 0.0000000000000000e+00  9.7843416057540634e-03 1.0112956176695439e-03 0.0000000000000000e+00  1.2481971413283574e-02 -1.2958596168631167e-03 0.0000000000000000e+00  7.1302445091940392e-01 -1.7896490076578978e-01 0.0000000000000000e+00  7.2435382159143136e-01 1.5424378561859897e-01 0.0000000000000000e+00  3.0085158186016349e-02 1.8997804637457582e-03 0.0000000000000000e+00  4.9093937872550847e-01 -8.3420297686375947e-02 0.0000000000000000e+00  4.9571195606421348e-01 -3.8136217637974021e-02 0.0000000000000000e+00  2.8234302291920643e-01 3.7627394147218531e-02 0.0000000000000000e+00  5.8374910071013408e-01 -3.7423864081096103e-02 0.0000000000000000e+00  2.6198418241599845e-02 3.7561471278727165e-02 0.0000000000000000e+00  3.5758643643799004e-01 -4.5225713697317808e-02 0.0000000000000000e+00  4.8188582446101616e-03 -4.6938566483746271e-03 0.0000000000000000e+00  6.0828475103306989e-01 -1.2296082315335109e-01 0.0000000000000000e+00  4.2668160684223816e-01 -8.0451889131408230e-02 0.0000000000000000e+00  6.5845241774057128e-01 -2.5279472236312089e-02 0.0000000000000000e+00  5.3879810989504506e-01 7.7163362346121733e-03 0.0000000000000000e+00  6.8115702417673385e-01 1.0354802103961275e-01 0.0000000000000000e+00  4.1773430675453825e-02 -4.5821136297934058e-04 0.0000000000000000e+00  6.7817226670193784e-02 6.8792117463966555e-04 0.0000000000000000e+00  2.7149645014313029e-01 3.2128174880189063e-02 0.0000000000000000e+00  6.4385333566967362e-01 1.4054409304301391e-01 0.0000000000000000e+00  6.8750771277251328e-03 1.0255793414119451e-02 0.0000000000000000e+00  4.6498462541921598e-01 7.9506774266546731e-02 0.0000000000000000e+00  4.9351585977328277e-01 6.6077191787999326e-02 0.0000000000000000e+00  4.9099617526307655e-02 -2.0805799741745231e-02 0.0000000000000000e+00  5.5965197870543770e-02 1.7639513456440031e-02 0.0000000000000000e+00  6.4561408751408408e-03 2.5857230031340896e-03 0.0000000000000000e+00  8.8869781896312068e-03 -2.4303875654927741e-03 0.0000000000000000e+00  2.5182240143342666e-01 -5.5767974426012924e-02 0.0000000000000000e+00  8.0029909226425144e-01 4.0309301404675126e-02 0.0000000000000000e+00  3.8964262377158365e-01 -4.2107849410743378e-03 0.0000000000000000e+00  7.0888931816890699e-01 5.6739790360973985e-02 0.0000000000000000e+00  6.5029933324786293e-01 2.8587251997315603e-02 0.0000000000000000e+00  2.8508542154285138e-01 -2.5324648474823640e-02 0.0000000000000000e+00  7.4049502566283696e-04 2.0233253879139285e-04 0.0000000000000000e+00  1.4913223137118539e-01 4.0563248438409624e-03 0.0000000000000000e+00  1.9912461337017898e-01 -5.3705984182971359e-02 0.0000000000000000e+00  1.1287309097169235e-02 -4.1856539122004177e-03 0.0000000000000000e+00  5.7113792201278379e-01 -5.0038246759533389e-02 0.0000000000000000e+00  3.1322584934483637e-02 2.1077595940088411e-02 0.0000000000000000e+00  5.0354782112527641e-01 -6.3226981559306158e-02 0.0000000000000000e+00  4.6919041229848257e-01 -5.3926143445907404e-02 0.0000000000000000e+00  4.2232735255434051e-01 4.0795031906098039e-02 0.0000000000000000e+00  4.9033741772077266e-01 -7.9900739729044587e-02 0.0000000000000000e+00  1.9837083753164855e-01 -1.4311516601647631e-04 0.0000000000000000e+00  6.0441527827105335e-01 -3.2142583565633757e-02 0.0000000000000000e+00  5.1528183169997654e-01 -5.0457555928483035e-02 0.0000000000000000e+00  5.9335172437465822e-01 -5.1058079143990194e-02 0.0000000000000000e+00  5.1214625548097126e-01 1.8408855456114075e-02 0.0000000000000000e+00  2.4484234374520275e-01 1.0782517625166411e-01 0.0000000000000000e+00  3.1377928330979660e-01 -3.3532235047540396e-02 0.0000000000000000e+00  1.7933094494897259e-02 3.2786067700224741e-02 0.0000000000000000e+00  3.0460170773437361e-02 4.5088504544118488e-02 0.0000000000000000e+00  2.0434874571038507e-02 4.3189916304481830e-02 0.0000000000000000e+00  3.5500690389077116e-01 -4.5958144497495156e-02 0.0000000000000000e+00  3.5853074845853822e-01 -4.4370865219156841e-02 0.0000000000000000e+00  3.5699446815865710e-01 -4.5863798374157709e-02 0.0000000000000000e+00  4.2998985402943912e-01 -2.7536006392859760e-02 0.0000000000000000e+00  6.5017120439651821e-01 -7.4238588749289833e-02 0.0000000000000000e+00  4.0536647794725137e-03 2.7983038245680491e-03 0.0000000000000000e+00  7.7055004905072766e-01 6.3770347502391564e-02 0.0000000000000000e+00  1.7034251395263000e-02 1.1113130940201272e-03 0.0000000000000000e+00  5.4653705186098367e-01 -1.3328533721922153e-01 0.0000000000000000e+00  7.4373353210650694e-01 8.7139167888193713e-03 0.0000000000000000e+00  6.0080311774273121e-01 3.1964344667865770e-03 0.0000000000000000e+00  7.9856082467316000e-02 1.3085794647569055e-02 0.0000000000000000e+00  1.1787164227740022e-03 -1.0007958306502338e-03 0.0000000000000000e+00  7.6636451998578228e-02 -8.7803712788264935e-03 0.0000000000000000e+00  5.4734965989849185e-03 -3.0664886220018238e-03 0.0000000000000000e+00  6.9746479615741630e-01 1.2378391614177632e-01 0.0000000000000000e+00  3.8452875698895439e-01 -9.0066530016461491e-02 0.0000000000000000e+00  1.3069394665970178e-02 -6.9940371950891753e-04 0.0000000000000000e+00  2.8976614022909508e-01 -7.0120202968184473e-03 0.0000000000000000e+00  6.8918928136536084e-01 -1.4650856411877389e-01 0.0000000000000000e+00  3.3483814649215538e-01 5.4856934663032535e-02 0.0000000000000000e+00  1.1862575016407327e-01 -4.8134535986275760e-03 0.0000000000000000e+00  6.0305626774506071e-01 1.0011136775471276e-01 0.0000000000000000e+00  5.5709268943413348e-01 1.3120243842710300e-01 0.0000000000000000e+00  1.8231622885640503e-01 3.6618603564551599e-02 0.0000000000000000e+00  1.6145997320895650e-03 -3.0277157873346843e-03 0.0000000000000000e+00  6.3969167851516306e-01 -1.6024815449558930e-01 0.0000000000000000e+00  5.2892633642569353e-01 -1.1386646021333387e-02 0.0000000000000000e+00  8.1778987468808500e-03 -1.4031126765752730e-02 0.0000000000000000e+00  1.2462417173113391e-01 -2.5678700918759859e-02 0.0000000000000000e+00  2.2822009242534397e-01 -3.9499744556038975e-02 0.0000000000000000e+00  5.9175225092969019e-01 1.9425106648434321e-02 0.0000000000000000e+00  2.3835652797593969e-02 2.1259346424770289e-03 0.0000000000000000e+00  8.6707582930796480e-03 1.1964584506979951e-02 0.0000000000000000e+00  6.8342099384928490e-01 5.0139375356794504e-02 0.0000000000000000e+00  4.3535686936114804e-01 3.5963799110884015e-02 0.0000000000000000e+00  1.3775728511523453e-03 5.7678099934598548e-03 0.0000000000000000e+00  2.0097119508847953e-02 1.5849264726693329e-02 0.0000000000000000e+00  5.0014193358301451e-01 8.4320564207336149e-02 0.0000000000000000e+00  4.4376522618407171e-01 2.4588867262680374e-02 0.0000000000000000e+00  5.1005924895352273e-01 6.7038732179147922e-02 0.0000000000000000e+00  2.7596080227175929e-01 -7.3414593878603329e-02 0.0000000000000000e+00  6.7319553627213924e-01 7.0682388377569294e-02 0.0000000000000000e+00  2.0465059580503694e-01 -4.7699648746386526e-02 0.0000000000000000e+00  6.0302563361291313e-02 -1.8083147280672885e-02 0.0000000000000000e+00  5.5830251935541308e-02 9.7216927439050822e-03 0.0000000000000000e+00  3.8026335812806794e-01 -2.3530308986833129e-02 0.0000000000000000e+00  3.0035044625342971e-01 -1.4068573083856692e-02 0.0000000000000000e+00  1.9229927084504259e-01 2.2789961298631503e-03 0.0000000000000000e+00  6.0850976129832912e-01 -1.1206724355263188e-02 0.0000000000000000e+00  1.60597