<?xml version="1.0"?>
<VTKFile type="UnstructuredGrid"  version="0.1"  >
<UnstructuredGrid>
<Piece  NumberOfPoints="2868" NumberOfCells="5400">
<Points>
<DataArray  type="Float64"  NumberOfComponents="3"  format="ascii">0.534923 0.326073 0  0.510642 0.314196 0  0.466125 0.293082 0  0.436448 0.281205 0  0.409468 0.275927 0  0.368998 0.270648 0  0.35281 0.275927 0  0.381139 0.302319 0  0.405421 0.326073 0  0.410817 0.33531 0  0.408119 0.349826 0  0.400025 0.357744 0  0.375743 0.368301 0  0.329878 0.392055 0  0.297502 0.432963 0  0.282663 0.476511 0  0.285361 0.524018 0  0.298851 0.572845 0  0.317737 0.6045160000000001 0  0.337972 0.6361869999999999 0  0.360904 0.674457 0  0.368998 0.69953 0  0.359555 0.7219640000000001 0  0.360904 0.757594 0  0.370347 0.766831 0  0.381139 0.762872 0  0.390582 0.741758 0  0.404072 0.720644 0  0.424307 0.707448 0  0.447239 0.702169 0  0.480964 0.704808 0  0.479615 0.6889729999999999 0  0.468823 0.675776 0  0.447239 0.6691780000000001 0  0.428354 0.6691780000000001 0  0.410817 0.6639 0  0.404072 0.653343 0  0.395978 0.628269 0  0.387884 0.59132 0  0.389233 0.576804 0  0.397327 0.557009 0  0.410817 0.547772 0  0.424307 0.546452 0  0.437797 0.55305 0  0.44589 0.5662469999999999 0  0.441843 0.582082 0  0.439145 0.5979179999999999 0  0.449937 0.609795 0  0.468823 0.603196 0  0.479615 0.59 0  0.489058 0.570205 0  0.494454 0.546452 0  0.505246 0.522699 0  0.522783 0.509502 0  0.55246 0.494986 0  0.586185 0.484429 0  0.615863 0.48047 0  0.64554 0.473872 0  0.6671240000000001 0.461995 0  0.683312 0.451438 0  0.696802 0.435603 0  0.703547 0.417128 0  0.7116400000000001 0.393374 0  0.7183850000000001 0.37226 0  0.7251300000000001 0.364342 0  0.739969 0.353785 0  0.7453650000000001 0.344548 0  0.7453650000000001 0.327393 0  0.737271 0.318155 0  0.7183850000000001 0.316835 0  0.7008490000000001 0.319475 0  0.677916 0.318155 0  0.650936 0.316835 0  0.610467 0.318155 0  0.57944 0.324753 0  0.559205 0.328712 0  0.5389699999999999 0.326073 0  1 1 0  1 0 0  0 0 0  0 1 0  0.532238 0.32476 0  0.528748 0.323052 0  0.52421 0.320833 0  0.518311 0.317947 0  0.503447 0.310783 0  0.494093 0.306347 0  0.481933 0.30058 0  0.452151 0.28749 0  0.392327 0.273691 0  0.379141 0.271971 0  0.360474 0.283066 0  0.369797 0.291752 0  0.391424 0.31238 0  0.399335 0.32012 0  0.40958 0.341964 0  0.393939 0.36039 0  0.386028 0.36383 0  0.364248 0.374254 0  0.349304 0.381994 0  0.315801 0.409841 0  0.292986 0.551616 0  0.350934 0.657818 0  0.360127 0.737055 0  0.360566 0.748664 0  0.385245 0.753692 0  0.396447 0.732578 0  0.466301 0.703661 0  0.459439 0.672908 0  0.418442 0.666195 0  0.400553 0.642441 0  0.39255 0.612619 0  0.389913 0.60058 0  0.392752 0.568197 0  0.444131 0.573132 0  0.458149 0.606926 0  0.5005540000000001 0.533026 0  0.571522 0.489019 0  0.632637 0.476741 0  0.689177 0.444553 0  0.708121 0.403702 0  0.715453 0.38144 0  0.732406 0.359166 0  0.7453650000000001 0.337089 0  0.72906 0.317581 0  0.629879 0.317522 0  0.59293 0.321884 0  0.568003 0.326991 0  0.55202 0.327775 0  0.546493 0.327054 0  0.542241 0.326499 0  1 0.9 0  1 0.8 0  1 0.7 0  1 0.6 0  1 0.5 0  1 0.4 0  1 0.3 0  1 0.2 0  1 0.1 0  0.9 0 0  0.8 0 0  0.7 0 0  0.6 0 0  0.5 0 0  0.4 0 0  0.3 0 0  0.2 0 0  0.1 0 0  0.1 1 0  0.2 1 0  0.3 1 0  0.4 1 0  0.5 1 0  0.6 1 0  0.7 1 0  0.8 1 0  0.9 1 0  0 0.1 0  0 0.2 0  0 0.3 0  0 0.4 0  0 0.5 0  0 0.6 0  0 0.7 0  0 0.8 0  0 0.9 0  0.535686 0.5031910000000001 0  0.753987 0.733359 0  0.167145 0.741436 0  0.173378 0.257204 0  0.733497 0.159862 0  0.554096 0.15788 0  0.849187 0.479053 0  0.488793 0.838452 0  0.138507 0.5592 0  0.30686 0.154944 0  0.348904 0.890523 0  0.058006 0.065099 0  0.06984899999999999 0.937917 0  0.93633 0.939704 0  0.934625 0.053613 0  0.343397 0.333452 0  0.473272 0.639943 0  0.433266 0.638072 0  0.415174 0.58269 0  0.533435 0.545042 0  0.390848 0.340652 0  0.53655 0.320242 0  0.127966 0.393775 0  0.83861 0.850455 0  0.635242 0.8551299999999999 0  0.852158 0.633441 0  0.653427 0.626848 0  0.861226 0.24292 0  0.166128 0.12976 0  0.216875 0.8698709999999999 0  0.458305 0.11179 0  0.84446 0.101633 0  0.202024 0.642528 0  0.644825 0.115855 0  0.671342 0.218358 0  0.251354 0.286186 0  0.262388 0.75153 0  0.063044 0.751571 0  0.068189 0.242962 0  0.435781 0.9053949999999999 0  0.934144 0.451133 0  0.568393 0.237622 0  0.814984 0.395506 0  0.752951 0.517227 0  0.456254 0.780699 0  0.073352 0.531116 0  0.337731 0.206071 0  0.363213 0.960371 0  0.330742 0.363592 0  0.516613 0.55705 0  0.369057 0.332992 0  0.500926 0.617309 0  0.498004 0.665534 0  0.412142 0.61178 0  0.454233 0.6366039999999999 0  0.422782 0.567496 0  0.541193 0.5214800000000001 0  0.439761 0.65557 0  0.5163 0.533672 0  0.414775 0.64562 0  0.40073 0.576135 0  0.430362 0.5880339999999999 0  0.385432 0.351492 0  0.400298 0.335397 0  0.398325 0.348194 0  0.528702 0.314885 0  0.540814 0.322334 0  0.534477 0.322953 0  0.619095 0.743583 0  0.885162 0.737972 0  0.08076 0.668849 0  0.90734 0.36634 0  0.09468699999999999 0.868937 0  0.759838 0.912152 0  0.901518 0.540898 0  0.747285 0.607479 0  0.229182 0.071641 0  0.06915399999999999 0.450091 0  0.244775 0.203309 0  0.076534 0.331755 0  0.897847 0.167826 0  0.578909 0.911415 0  0.07713299999999999 0.146341 0  0.477215 0.203448 0  0.922631 0.869341 0  0.517415 0.074785 0  0.297026 0.827793 0  0.7832710000000001 0.246505 0  0.74519 0.061079 0  0.36033 0.069068 0  0.210313 0.475228 0  0.859426 0.928758 0  0.5745479999999999 0.609182 0  0.243069 0.383398 0  0.283099 0.934598 0  0.417416 0.843141 0  0.643942 0.553164 0  0.112687 0.079336 0  0.281357 0.658386 0  0.765043 0.436177 0  0.611361 0.198486 0  0.234496 0.58911 0  0.206479 0.702638 0  0.679608 0.155818 0  0.62682 0.259978 0  0.690538 0.264164 0  0.448938 0.956308 0  0.808154 0.328403 0  0.379583 0.91913 0  0.308083 0.297769 0  0.312358 0.730249 0  0.563101 0.278576 0  0.435597 0.746198 0  0.385475 0.225229 0  0.572248 0.518034 0  0.357864 0.35422 0  0.497647 0.641694 0  0.458101 0.655768 0  0.360474 0.310727 0  0.467038 0.620139 0  0.47798 0.659909 0  0.41102 0.628072 0  0.48324 0.609015 0  0.427544 0.617941 0  0.388633 0.328253 0  0.405336 0.599404 0  0.408351 0.565178 0  0.42395 0.600985 0  0.431562 0.576523 0  0.424905 0.6551979999999999 0  0.398064 0.58782 0  0.427739 0.557934 0  0.5192909999999999 0.303443 0  0.53142 0.320293 0  0.5449000000000001 0.323642 0  0.537166 0.323513 0  0.153974 0.920841 0  0.9181859999999999 0.67343 0  0.759946 0.820588 0  0.5375259999999999 0.783091 0  0.816532 0.545843 0  0.813991 0.178083 0  0.836774 0.702023 0  0.149815 0.318856 0  0.662287 0.923338 0  0.680146 0.791192 0  0.708961 0.663172 0  0.9372779999999999 0.287318 0  0.574622 0.6881660000000001 0  0.5894740000000001 0.076262 0  0.502822 0.926683 0  0.222269 0.811068 0  0.380457 0.164786 0  0.15321 0.684154 0  0.458063 0.051413 0  0.161702 0.056026 0  0.199351 0.198818 0  0.298946 0.09553200000000001 0  0.902465 0.795949 0  0.121139 0.791477 0  0.906269 0.112287 0  0.056109 0.822332 0  0.512172 0.13237 0  0.940964 0.741805 0  0.888887 0.408777 0  0.354543 0.825964 0  0.808736 0.068638 0  0.068507 0.394071 0  0.719105 0.563843 0  0.247287 0.149664 0  0.293062 0.237128 0  0.240524 0.434997 0  0.141255 0.623289 0  0.945202 0.160621 0  0.502914 0.247629 0  0.144669 0.480811 0  0.665025 0.060817 0  0.728047 0.224344 0  0.861995 0.313312 0  0.200068 0.534235 0  0.253262 0.965623 0  0.893804 0.49307 0  0.604391 0.572456 0  0.947088 0.345347 0  0.439372 0.227307 0  0.629847 0.159823 0  0.273405 0.880181 0  0.302744 0.776823 0  0.781502 0.295365 0  0.275342 0.349602 0  0.7283849999999999 0.472798 0  0.229136 0.246478 0  0.807794 0.480346 0  0.709476 0.112786 0  0.275506 0.694991 0  0.771674 0.394419 0  0.449715 0.861802 0  0.419159 0.799696 0  0.674851 0.503139 0  0.280443 0.61016 0  0.572443 0.192538 0  0.393113 0.87525 0  0.405555 0.948428 0  0.330942 0.934103 0  0.540509 0.597101 0  0.312763 0.6689310000000001 0  0.254368 0.540179 0  0.595265 0.25915 0  0.606679 0.234099 0  0.657131 0.279138 0  0.722458 0.279478 0  0.333 0.308056 0  0.351529 0.246142 0  0.455714 0.7257940000000001 0  0.585239 0.295143 0  0.340062 0.72492 0  0.545593 0.293773 0  0.555449 0.545426 0  0.414311 0.737314 0  0.590854 0.502323 0  0.350507 0.368444 0  0.484423 0.625665 0  0.483899 0.674542 0  0.378137 0.317274 0  0.446416 0.646404 0  0.373532 0.347654 0  0.446876 0.619769 0  0.466106 0.666068 0  0.437545 0.609254 0  0.434988 0.565726 0  0.41462 0.656829 0  0.418803 0.556961 0  0.398425 0.327446 0  0.517803 0.310421 0  0.549516 0.322918 0  0.57701 0.842889 0  0.8291269999999999 0.773906 0  0.643235 0.684732 0  0.134281 0.207734 0  0.865997 0.055966 0  0.680959 0.723345 0  0.165229 0.8415550000000001 0  0.54558 0.959672 0  0.783726 0.656439 0  0.913315 0.595533 0  0.699439 0.860667 0  0.785839 0.125076 0  0.551673 0.037713 0  0.9200970000000001 0.223214 0  0.206406 0.299726 0  0.087064 0.596401 0  0.935644 0.394252 0  0.964557 0.252582 0  0.230124 0.928346 0  0.120579 0.271764 0  0.8572149999999999 0.524082 0  0.7670979999999999 0.5551469999999999 0  0.936094 0.507131 0  0.804064 0.59585 0  0.700565 0.608273 0  0.429773 0.174231 0  0.117746 0.727333 0  0.5389620000000001 0.730231 0  0.862761 0.359173 0  0.821444 0.284046 0  0.193552 0.35818 0  0.234923 0.505555 0  0.193209 0.421217 0  0.220144 0.755896 0  0.594015 0.131642 0  0.283813 0.195855 0  0.517519 0.213961 0  0.553509 0.639116 0  0.280391 0.378018 0  0.852183 0.436817 0  0.746983 0.197173 0  0.821806 0.221318 0  0.449853 0.828453 0  0.883758 0.453926 0  0.183484 0.589542 0  0.348384 0.129314 0  0.255254 0.838525 0  0.504849 0.798516 0  0.320344 0.863432 0  0.611669 0.525425 0  0.265864 0.804962 0  0.72056 0.521442 0  0.613372 0.6101220000000001 0  0.481262 0.881068 0  0.655778 0.191988 0  0.701921 0.196918 0  0.5658260000000001 0.5731810000000001 0  0.46914 0.240927 0  0.343219 0.173284 0  0.888786 0.278502 0  0.244113 0.6750930000000001 0  0.739546 0.417914 0  0.784023 0.355942 0  0.326805 0.265549 0  0.248616 0.6
[...]
<PointData  Vectors="f_21"> 
<DataArray  type="Float64"  Name="f_21"  NumberOfComponents="3" format="ascii">6.8056834689681007e-05 -1.8516561084053880e-05 0.0000000000000000e+00  3.2245788485406816e-05 -4.5153499884614833e-06 0.0000000000000000e+00  6.2160436592942164e-06 -4.4831712242534831e-07 0.0000000000000000e+00  1.9259900503982740e-06 -1.7617985861200202e-07 0.0000000000000000e+00  5.9712830055999034e-07 -7.0495263453362141e-08 0.0000000000000000e+00  8.8425834574551309e-08 -1.3602480036712899e-08 0.0000000000000000e+00  2.2206783494358093e-08 -5.0260968515564603e-09 0.0000000000000000e+00  7.4775198054798250e-10 7.7615705576971901e-10 0.0000000000000000e+00  9.5364452762913040e-11 1.3226420096217112e-10 0.0000000000000000e+00  6.0048838061370071e-11 1.2121170330197582e-10 0.0000000000000000e+00  1.2927246202291813e-11 1.0136901385081791e-10 0.0000000000000000e+00  -8.5411765548694307e-12 7.7186959384022609e-11 0.0000000000000000e+00  -3.2897193807767516e-11 1.6397326374146836e-11 0.0000000000000000e+00  -5.4471672333178085e-12 -2.4455176337300000e-11 0.0000000000000000e+00  5.2421862351527025e-13 -3.2701172228643047e-12 0.0000000000000000e+00  1.3871914712804460e-14 -2.6485483212582174e-13 0.0000000000000000e+00  -4.9218495868017017e-15 -4.6869639793815977e-15 0.0000000000000000e+00  3.0453605040131115e-14 1.6087314105855590e-13 0.0000000000000000e+00  1.0837717636090312e-13 1.0136385484332986e-12 0.0000000000000000e+00  5.3893320110089124e-14 5.0332012573324140e-12 0.0000000000000000e+00  -8.6024333028317337e-12 2.3796702743660781e-11 0.0000000000000000e+00  -1.9312253808820987e-11 2.9800406342279898e-11 0.0000000000000000e+00  3.6649654752348812e-11 5.9088314056712985e-11 0.0000000000000000e+00  5.5328721735387937e-09 4.1480560686018527e-10 0.0000000000000000e+00  2.7523862289286297e-08 -3.4727519579643549e-09 0.0000000000000000e+00  6.3515945610684639e-08 -6.9925524726092232e-09 0.0000000000000000e+00  1.4503215105501780e-07 -1.9264789871024020e-08 0.0000000000000000e+00  2.7355422500027956e-07 -1.4629453878509269e-08 0.0000000000000000e+00  5.5234829030666863e-07 6.8713476535406013e-08 0.0000000000000000e+00  1.0370593914091012e-06 2.6561618102169827e-07 0.0000000000000000e+00  4.5802897604592292e-06 -2.6550129568223334e-07 0.0000000000000000e+00  6.2143052941581977e-06 -7.5068083688785550e-07 0.0000000000000000e+00  3.9133278514130884e-06 -5.6341687423912385e-07 0.0000000000000000e+00  1.6078766936177603e-06 -3.4918758878566261e-07 0.0000000000000000e+00  8.5052181055067049e-07 -1.8984244589928330e-07 0.0000000000000000e+00  5.9697393163795668e-07 -1.6843253799068987e-08 0.0000000000000000e+00  4.5852553040175038e-07 2.8210911626055076e-08 0.0000000000000000e+00  2.8208287053411963e-07 6.5255078385854705e-08 0.0000000000000000e+00  7.9119290361431131e-08 7.8212774958012423e-08 0.0000000000000000e+00  3.6107405510237123e-08 6.0931930285390020e-08 0.0000000000000000e+00  4.1093647944168008e-09 3.7709759165290086e-08 0.0000000000000000e+00  -5.1533310719495134e-09 2.1845242762306371e-08 0.0000000000000000e+00  -6.5607245817775055e-09 1.1757029009660419e-08 0.0000000000000000e+00  -4.6125054310053333e-09 1.8548802498284915e-09 0.0000000000000000e+00  6.3247603218162766e-09 -1.2030267165184656e-08 0.0000000000000000e+00  4.4544482177340892e-08 -1.9837576867276038e-08 0.0000000000000000e+00  2.7325285296369322e-07 1.2008885229248112e-08 0.0000000000000000e+00  1.6395758632804117e-06 -8.9974487998931434e-08 0.0000000000000000e+00  5.1714894824064548e-06 -5.1211835885425299e-07 0.0000000000000000e+00  9.5349310822323308e-06 -1.0964239957825942e-06 0.0000000000000000e+00  1.5808132026351066e-05 -2.3671998365675458e-06 0.0000000000000000e+00  2.2985646380306682e-05 -4.6322471719235984e-06 0.0000000000000000e+00  4.0492244924390249e-05 -6.4040834197593256e-06 0.0000000000000000e+00  6.6670273100975818e-05 -2.0626855424235766e-06 0.0000000000000000e+00  1.6633966409358356e-04 1.3767146152569636e-05 0.0000000000000000e+00  4.5862555427946726e-04 6.4306704610834161e-05 0.0000000000000000e+00  1.1520837144488099e-03 1.6379539476433957e-04 0.0000000000000000e+00  2.8095024026269042e-03 1.2955191143693370e-04 0.0000000000000000e+00  5.5060037966488907e-03 1.8858310877863918e-04 0.0000000000000000e+00  8.3546631297617049e-03 1.0185703854086302e-04 0.0000000000000000e+00  1.1819243871716246e-02 -1.7816656857122087e-04 0.0000000000000000e+00  1.4979331374761300e-02 -6.4975222940486920e-04 0.0000000000000000e+00  1.8562593838449149e-02 -1.0623616773053190e-03 0.0000000000000000e+00  2.2301443253963885e-02 -1.1826562608583313e-03 0.0000000000000000e+00  2.3989991140700998e-02 -4.8913839926994932e-04 0.0000000000000000e+00  2.6989483498426198e-02 4.7280811357159567e-04 0.0000000000000000e+00  2.8707362216939366e-02 3.1202026003621059e-04 0.0000000000000000e+00  2.6123325548468673e-02 -4.0338457455979401e-04 0.0000000000000000e+00  1.9870525564891946e-02 -9.4026113625856982e-04 0.0000000000000000e+00  1.1941351552677238e-02 -2.1530595900828872e-03 0.0000000000000000e+00  8.0159875918243868e-03 -2.2515218365245135e-03 0.0000000000000000e+00  4.9352991149952284e-03 -1.4543453825519579e-03 0.0000000000000000e+00  2.4078078114714578e-03 -7.0011022336977070e-04 0.0000000000000000e+00  6.5030535068668748e-04 -2.1554799038490190e-04 0.0000000000000000e+00  2.0895826110769401e-04 -9.0578714991223439e-05 0.0000000000000000e+00  1.1994497288404500e-04 -5.0240788518639326e-05 0.0000000000000000e+00  7.2725407645461595e-05 -2.1883086775963582e-05 0.0000000000000000e+00  1.8637408305818876e-01 -5.1849179995425813e-02 0.0000000000000000e+00  1.8658738592045321e-01 5.2104159610117530e-02 0.0000000000000000e+00  0.0000000000000000e+00 0.0000000000000000e+00 0.0000000000000000e+00  0.0000000000000000e+00 0.0000000000000000e+00 0.0000000000000000e+00  6.4045444374299159e-05 -1.5695876209692684e-05 0.0000000000000000e+00  5.8089285647704565e-05 -1.2760662533914695e-05 0.0000000000000000e+00  5.0395765349736306e-05 -9.6911691485388264e-06 0.0000000000000000e+00  4.1748491447351077e-05 -6.9219680589714950e-06 0.0000000000000000e+00  2.5301772459709435e-05 -3.1363309641112769e-06 0.0000000000000000e+00  1.8004187570540313e-05 -1.8485973470676796e-06 0.0000000000000000e+00  1.1818207664417950e-05 -1.0304711771149501e-06 0.0000000000000000e+00  3.6683451223900202e-06 -2.9321828563180881e-07 0.0000000000000000e+00  3.0370008620135180e-07 -5.6332299356208288e-08 0.0000000000000000e+00  1.6505469547545542e-07 -2.4893171055580676e-08 0.0000000000000000e+00  7.6811909655759167e-09 1.6952084532234632e-09 0.0000000000000000e+00  2.3576701220778168e-09 1.6228410044940225e-09 0.0000000000000000e+00  2.4936633360309388e-10 3.1789432569586337e-10 0.0000000000000000e+00  1.3777777134014897e-10 1.7566563797233466e-10 0.0000000000000000e+00  3.8449178904667730e-11 1.1155246257789672e-10 0.0000000000000000e+00  -1.6038727364158464e-11 6.1755997678490734e-11 0.0000000000000000e+00  -2.5615800322561506e-11 4.3962113037643950e-11 0.0000000000000000e+00  -3.0010825736460335e-11 -1.2227786709098663e-11 0.0000000000000000e+00  -1.9122205226811325e-11 -2.5624797791889189e-11 0.0000000000000000e+00  -2.2012502264336264e-14 -1.1870484505148471e-11 0.0000000000000000e+00  3.5050423974926942e-15 4.5569414204718082e-14 0.0000000000000000e+00  -2.0056035458227992e-12 1.3330551432225180e-11 0.0000000000000000e+00  3.6429530800704223e-10 3.8686391503518780e-11 0.0000000000000000e+00  1.6592584390963453e-09 -8.4002218416701599e-11 0.0000000000000000e+00  1.0180749565394382e-07 -1.3593275656565854e-08 0.0000000000000000e+00  1.8929110849534467e-07 -1.9989736958933544e-08 0.0000000000000000e+00  2.1124866422498736e-06 3.7727250120665916e-07 0.0000000000000000e+00  2.6980581091851597e-06 -5.2116800615128789e-07 0.0000000000000000e+00  6.7372956851545937e-07 -9.0729004027122279e-08 0.0000000000000000e+00  3.6668258642557710e-07 4.3825781475833097e-08 0.0000000000000000e+00  1.7984445635950685e-07 7.9203629485746902e-08 0.0000000000000000e+00  1.2007327506450872e-07 8.0030454034088419e-08 0.0000000000000000e+00  1.9305720732833531e-08 4.8664900148155096e-08 0.0000000000000000e+00  1.6751890602873786e-08 -1.3891034209446003e-08 0.0000000000000000e+00  2.9876636741518624e-06 -2.2107269375969322e-07 0.0000000000000000e+00  3.1555401116919599e-05 -5.7980118731773259e-06 0.0000000000000000e+00  2.9457418108148718e-04 3.6310535809547524e-05 0.0000000000000000e+00  1.9171442925577328e-03 1.8962962012051976e-04 0.0000000000000000e+00  9.9230156295123679e-03 -3.8942690074105152e-05 0.0000000000000000e+00  1.6997643061865953e-02 -8.9580922095889258e-04 0.0000000000000000e+00  2.0592662523790127e-02 -1.2018752151795723e-03 0.0000000000000000e+00  2.5368221180669941e-02 1.6638745139339425e-04 0.0000000000000000e+00  2.8622502172908980e-02 2.0661789229010295e-04 0.0000000000000000e+00  1.5822337121665250e-02 -1.8251682706577066e-03 0.0000000000000000e+00  1.2615589809919976e-03 -4.0329355688050416e-04 0.0000000000000000e+00  3.3452520853579308e-04 -1.3328971028074530e-04 0.0000000000000000e+00  1.4611430579816127e-04 -6.4444290195545350e-05 0.0000000000000000e+00  1.0202868499615549e-04 -3.7656101455238260e-05 0.0000000000000000e+00  8.8383748813862002e-05 -2.9822774271316533e-05 0.0000000000000000e+00  7.9004920854192721e-05 -2.4981887615564301e-05 0.0000000000000000e+00  1.7248856867301657e-01 -2.2902914215902265e-02 0.0000000000000000e+00  1.6899837531453937e-01 -5.7660478440711340e-03 0.0000000000000000e+00  1.6913980985420107e-01 -5.3549797020285372e-04 0.0000000000000000e+00  1.6867986969758322e-01 -1.7417810505344453e-04 0.0000000000000000e+00  1.6894931535886296e-01 2.0211822988759220e-06 0.0000000000000000e+00  1.6889038851752208e-01 -4.2615770433229032e-05 0.0000000000000000e+00  1.6910939110214981e-01 5.9910106497950452e-04 0.0000000000000000e+00  1.6928529390068989e-01 5.7185145491842840e-03 0.0000000000000000e+00  1.7217991257663592e-01 2.3089766420858752e-02 0.0000000000000000e+00  1.0073956851522441e-01 3.2815103423800500e-02 0.0000000000000000e+00  4.0278253532530887e-02 1.3310949853916848e-02 0.0000000000000000e+00  6.8189956068775582e-03 2.1252786255172352e-03 0.0000000000000000e+00  2.1626893145643031e-04 6.1745138563602093e-05 0.0000000000000000e+00  2.3788439587944004e-06 6.0368663160702429e-07 0.0000000000000000e+00  2.7644532624404892e-08 3.2654890097080837e-08 0.0000000000000000e+00  1.2345405666511020e-10 2.8827282499911021e-10 0.0000000000000000e+00  2.8171371483901811e-12 -7.8099311489669846e-12 0.0000000000000000e+00  -1.0701584173700632e-13 -5.4481601676637022e-13 0.0000000000000000e+00  -1.0966368823455339e-13 7.5041060345697668e-13 0.0000000000000000e+00  -3.1927429780868681e-12 3.1057995459522011e-11 0.0000000000000000e+00  -2.5916413167092935e-10 3.4694366448961372e-10 0.0000000000000000e+00  8.2087811547301252e-10 -5.2707314129198094e-09 0.0000000000000000e+00  1.0414485991581930e-06 -6.5529720285746248e-07 0.0000000000000000e+00  1.8092991237125719e-04 -5.0703426201640128e-05 0.0000000000000000e+00  6.6991602031578560e-03 -1.8676441460565975e-03 0.0000000000000000e+00  4.0489473360948887e-02 -1.3882741201560821e-02 0.0000000000000000e+00  1.0065486972011969e-01 -3.2720890329494386e-02 0.0000000000000000e+00  0.0000000000000000e+00 0.0000000000000000e+00 0.0000000000000000e+00  0.0000000000000000e+00 0.0000000000000000e+00 0.0000000000000000e+00  0.0000000000000000e+00 0.0000000000000000e+00 0.0000000000000000e+00  0.0000000000000000e+00 0.0000000000000000e+00 0.0000000000000000e+00  0.0000000000000000e+00 0.0000000000000000e+00 0.0000000000000000e+00  0.0000000000000000e+00 0.0000000000000000e+00 0.0000000000000000e+00  0.0000000000000000e+00 0.0000000000000000e+00 0.0000000000000000e+00  0.0000000000000000e+00 0.0000000000000000e+00 0.0000000000000000e+00  0.0000000000000000e+00 0.0000000000000000e+00 0.0000000000000000e+00  1.0052139511071607e-04 2.9908667811817048e-06 0.0000000000000000e+00  1.9686738683747037e-02 -1.0158460362689223e-04 0.0000000000000000e+00  6.5210031851865853e-13 2.0914054501183587e-13 0.0000000000000000e+00  7.4709738100553426e-12 -1.0988056914485828e-12 0.0000000000000000e+00  1.3384563792722244e-02 3.2763259803865610e-04 0.0000000000000000e+00  8.0545709027707391e-05 5.1927101116225406e-06 0.0000000000000000e+00  6.0498488569490520e-02 9.3349278207025888e-05 0.0000000000000000e+00  2.9854898367672251e-06 -4.2468394471005298e-07 0.0000000000000000e+00  6.1553739468373483e-16 4.8652394143420400e-16 0.0000000000000000e+00  3.1837458561927470e-09 4.6272696158929185e-10 0.0000000000000000e+00  3.7508520976841846e-09 -9.6991265884705485e-10 0.0000000000000000e+00  8.9227222618576999e-15 4.0974674638162664e-15 0.0000000000000000e+00  1.8188306014021764e-14 9.3296868433634277e-15 0.0000000000000000e+00  1.1982684346990444e-01 -2.4790053727208945e-02 0.0000000000000000e+00  1.1912101786672342e-01 2.6105209271617233e-02 0.0000000000000000e+00  -4.1845438960309322e-11 -2.2550603513538271e-10 0.0000000000000000e+00  3.4313449394811517e-06 -4.4144908930929414e-07 0.0000000000000000e+00  7.6365875732089249e-07 -1.0443243132522785e-07 0.0000000000000000e+00  5.5952281514305558e-08 5.0140906683924083e-08 0.0000000000000000e+00  4.8966911812306423e-05 -9.9522555172902289e-07 0.0000000000000000e+00  2.5018149115266115e-11 9.5600897989377320e-11 0.0000000000000000e+00  6.2325062121466686e-05 -1.7813925276556282e-05 0.0000000000000000e+00  4.0068993601809897e-14 -3.0289164309591859e-14 0.0000000000000000e+00  5.1791397839834240e-02 -3.2846621929537687e-03 0.0000000000000000e+00  9.1288509189341031e-04 -5.3068298564013357e-05 0.0000000000000000e+00  6.1935397164142224e-02 -4.6730778726869536e-05 0.0000000000000000e+00  1.9696158683525835e-03 -3.1986876203632634e-05 0.0000000000000000e+00  6.6706848754551434e-02 8.7695123050169428e-04 0.0000000000000000e+00  1.8052802789769993e-12 8.1055596514422237e-14 0.0000000000000000e+00  8.8382126260788375e-12 -1.5865433649846108e-12 0.0000000000000000e+00  1.3943705740837431e-06 2.5082662978734209e-07 0.0000000000000000e+00  5.4588256381521261e-02 6.9048588775488182e-03 0.0000000000000000e+00  1.4879268400480131e-13 1.4698575722138738e-13 0.0000000000000000e+00  1.4521125928751960e-03 1.2455578146380137e-04 0.0000000000000000e+00  3.4440779672744036e-03 1.6411331992796501e-05 0.0000000000000000e+00  2.0384536216802279e-10 -8.5467750100256575e-11 0.0000000000000000e+00  7.1937692188683670e-11 2.8717087150576321e-11 0.0000000000000000e+00  3.3294689797831814e-15 5.9532838440042789e-16 0.0000000000000000e+00  4.7520325733423895e-14 -5.3264064527965691e-15 0.0000000000000000e+00  1.5455323368213606e-07 -2.3875217343363079e-08 0.0000000000000000e+00  1.1506070276122493e-01 -1.8687411025435637e-05 0.0000000000000000e+00  1.5324896115655136e-04 -1.3557319908900072e-06 0.0000000000000000e+00  4.4400527819768471e-02 3.9147108995977282e-04 0.0000000000000000e+00  1.9638608857193457e-02 1.8600424240665679e-04 0.0000000000000000e+00  1.0384500278679153e-06 -9.7665678672394506e-08 0.0000000000000000e+00  3.4307501496248149e-17 -4.5988401719500594e-18 0.0000000000000000e+00  1.7229550697967257e-08 1.4965859190949884e-09 0.0000000000000000e+00  1.9987655203922627e-09 -2.1236113914344954e-09 0.0000000000000000e+00  -1.3985253258363534e-11 -5.7194570653603908e-11 0.0000000000000000e+00  2.7689685626694700e-05 -9.4077355403893932e-07 0.0000000000000000e+00  -2.5402176988324524e-11 8.3700911244674346e-11 0.0000000000000000e+00  1.1198235630317064e-05 -6.9789555859016640e-07 0.0000000000000000e+00  8.4717573996465886e-06 -9.3028911430315173e-07 0.0000000000000000e+00  2.6262443695058389e-07 5.2252546668974921e-08 0.0000000000000000e+00  1.6883813464974530e-06 -2.7202335335370932e-07 0.0000000000000000e+00  1.1368618870309667e-08 2.1323558154817497e-08 0.0000000000000000e+00  7.5272464396855125e-05 4.2773433688006796e-07 0.0000000000000000e+00  1.0189730524246604e-06 -1.8146121439614026e-07 0.0000000000000000e+00  3.5241584466372757e-05 -2.1266768273894325e-06 0.0000000000000000e+00  4.5524235109706330e-07 -3.5780877830966742e-08 0.0000000000000000e+00  3.4872187173863193e-08 4.2578924349622526e-08 0.0000000000000000e+00  9.8481077473752060e-08 4.5618471964134531e-08 0.0000000000000000e+00  -4.9551661167089486e-12 5.5382388310709688e-11 0.0000000000000000e+00  5.6790209779280680e-11 1.1063549266696808e-10 0.0000000000000000e+00  1.4013818199232749e-11 8.0403676025003709e-11 0.0000000000000000e+00  4.7204810890289835e-05 -1.1326385250022643e-05 0.0000000000000000e+00  7.0969976315926194e-05 -2.1699292676312321e-05 0.0000000000000000e+00  6.3214169498220575e-05 -1.7269127839207794e-05 0.0000000000000000e+00  5.8305292350351826e-04 -2.8022803164068673e-05 0.0000000000000000e+00  8.1189987252854270e-02 -9.1367752043798990e-04 0.0000000000000000e+00  1.7225824775186735e-15 8.1234525263256871e-16 0.0000000000000000e+00  9.6197533743886704e-02 8.7956795522491953e-05 0.0000000000000000e+00  5.9001081746741672e-15 -1.0903586988146209e-14 0.0000000000000000e+00  1.9023313629040944e-02 -1.5017986298500458e-03 0.0000000000000000e+00  9.2196275075278708e-02 -5.2919694864596248e-05 0.0000000000000000e+00  1.7755867140800345e-02 1.0859107775453049e-04 0.0000000000000000e+00  1.1709016604972595e-11 8.3167384501721871e-13 0.0000000000000000e+00  4.9109156497181733e-16 -3.9544719017774782e-16 0.0000000000000000e+00  2.8879834389715410e-10 9.4201085952440858e-12 0.0000000000000000e+00  2.1324381979209714e-14 -7.8082385711295971e-15 0.0000000000000000e+00  8.7322875741106962e-02 5.3286504468322369e-03 0.0000000000000000e+00  9.7004279827672313e-05 -1.5136931704418742e-06 0.0000000000000000e+00  1.7693270514896376e-14 1.0996551909081659e-15 0.0000000000000000e+00  5.0130509880977637e-06 2.5406873568492499e-07 0.0000000000000000e+00  1.0440831210499710e-01 -1.0884089450777630e-02 0.0000000000000000e+00  1.1776559017227523e-05 2.4095449350282757e-06 0.0000000000000000e+00  6.2492711523015567e-10 -7.0481390606253117e-11 0.0000000000000000e+00  3.0093981356693271e-02 -8.0121972569059834e-05 0.0000000000000000e+00  1.4911342544613990e-02 1.5848485090088611e-03 0.0000000000000000e+00  1.2438437738825677e-08 4.6820815804482252e-09 0.0000000000000000e+00  2.7286402310656533e-14 -4.2495657835472842e-14 0.0000000000000000e+00  6.4285088521694983e-02 -1.2232353417301993e-02 0.0000000000000000e+00  1.6426811991978945e-04 -1.3329742336289236e-05 0.0000000000000000e+00  3.4644050835442726e-12 -5.2522688096086535e-12 0.0000000000000000e+00  1.1056137316053637e-10 -4.8815903609482023e-11 0.0000000000000000e+00  1.2728462279561352e-07 -2.0422347687856296e-08 0.0000000000000000e+00  1.5918749372886417e-03 -4.0415846789492027e-05 0.0000000000000000e+00  6.3191680806124016e-14 8.2187134091982980e-15 0.0000000000000000e+00  1.8643612758613219e-12 4.6179050789306250e-12 0.0000000000000000e+00  2.4580902096567873e-02 7.9016279895737168e-04 0.0000000000000000e+00  5.9672149113917743e-04 1.9274477673099780e-05 0.0000000000000000e+00  3.0024018574247507e-14 5.1601948331565078e-14 0.0000000000000000e+00  1.4751957683810538e-12 9.3193914168016174e-13 0.0000000000000000e+00  4.0361133894233903e-03 1.8566932436811672e-04 0.0000000000000000e+00  9.9136763737714905e-04 -4.4012538819024613e-05 0.0000000000000000e+00  5.6748406647084892e-03 -2.5835654015625279e-04 0.0000000000000000e+00  1.6909483038678527e-07 -6.3071123020421308e-08 0.0000000000000000e+00  4.2060275445077615e-02 -2.8625533565859355e-04 0.0000000000000000e+00  1.0529613968599738e-08 -2.9773761542197195e-09 0.0000000000000000e+00  1.2388667527638678e-09 -1.0956926905836520e-09 0.0000000000000000e+00  2.0965410591003591e-10 2.4652246368219309e-10 0.0000000000000000e+00  1.2653347391517641e-04 -1.3523686334261824e-05 0.0000000000000000e+00  4.8824952240385981e-07 -4.5737538940461544e-09 0.0000000000000000e+00  1.3560857264894115e-07 9.7476526291410725e-09 0.0000000000000000e+00  1.9748737850840386e-04 4.5785874760999740e-06 0.