<?xml version="1.0"?>
<VTKFile type="UnstructuredGrid"  version="0.1"  >
<UnstructuredGrid>
<Piece  NumberOfPoints="2868" NumberOfCells="5400">
<Points>
<DataArray  type="Float64"  NumberOfComponents="3"  format="ascii">0.534923 0.326073 0  0.510642 0.314196 0  0.466125 0.293082 0  0.436448 0.281205 0  0.409468 0.275927 0  0.368998 0.270648 0  0.35281 0.275927 0  0.381139 0.302319 0  0.405421 0.326073 0  0.410817 0.33531 0  0.408119 0.349826 0  0.400025 0.357744 0  0.375743 0.368301 0  0.329878 0.392055 0  0.297502 0.432963 0  0.282663 0.476511 0  0.285361 0.524018 0  0.298851 0.572845 0  0.317737 0.6045160000000001 0  0.337972 0.6361869999999999 0  0.360904 0.674457 0  0.368998 0.69953 0  0.359555 0.7219640000000001 0  0.360904 0.757594 0  0.370347 0.766831 0  0.381139 0.762872 0  0.390582 0.741758 0  0.404072 0.720644 0  0.424307 0.707448 0  0.447239 0.702169 0  0.480964 0.704808 0  0.479615 0.6889729999999999 0  0.468823 0.675776 0  0.447239 0.6691780000000001 0  0.428354 0.6691780000000001 0  0.410817 0.6639 0  0.404072 0.653343 0  0.395978 0.628269 0  0.387884 0.59132 0  0.389233 0.576804 0  0.397327 0.557009 0  0.410817 0.547772 0  0.424307 0.546452 0  0.437797 0.55305 0  0.44589 0.5662469999999999 0  0.441843 0.582082 0  0.439145 0.5979179999999999 0  0.449937 0.609795 0  0.468823 0.603196 0  0.479615 0.59 0  0.489058 0.570205 0  0.494454 0.546452 0  0.505246 0.522699 0  0.522783 0.509502 0  0.55246 0.494986 0  0.586185 0.484429 0  0.615863 0.48047 0  0.64554 0.473872 0  0.6671240000000001 0.461995 0  0.683312 0.451438 0  0.696802 0.435603 0  0.703547 0.417128 0  0.7116400000000001 0.393374 0  0.7183850000000001 0.37226 0  0.7251300000000001 0.364342 0  0.739969 0.353785 0  0.7453650000000001 0.344548 0  0.7453650000000001 0.327393 0  0.737271 0.318155 0  0.7183850000000001 0.316835 0  0.7008490000000001 0.319475 0  0.677916 0.318155 0  0.650936 0.316835 0  0.610467 0.318155 0  0.57944 0.324753 0  0.559205 0.328712 0  0.5389699999999999 0.326073 0  1 1 0  1 0 0  0 0 0  0 1 0  0.532238 0.32476 0  0.528748 0.323052 0  0.52421 0.320833 0  0.518311 0.317947 0  0.503447 0.310783 0  0.494093 0.306347 0  0.481933 0.30058 0  0.452151 0.28749 0  0.392327 0.273691 0  0.379141 0.271971 0  0.360474 0.283066 0  0.369797 0.291752 0  0.391424 0.31238 0  0.399335 0.32012 0  0.40958 0.341964 0  0.393939 0.36039 0  0.386028 0.36383 0  0.364248 0.374254 0  0.349304 0.381994 0  0.315801 0.409841 0  0.292986 0.551616 0  0.350934 0.657818 0  0.360127 0.737055 0  0.360566 0.748664 0  0.385245 0.753692 0  0.396447 0.732578 0  0.466301 0.703661 0  0.459439 0.672908 0  0.418442 0.666195 0  0.400553 0.642441 0  0.39255 0.612619 0  0.389913 0.60058 0  0.392752 0.568197 0  0.444131 0.573132 0  0.458149 0.606926 0  0.5005540000000001 0.533026 0  0.571522 0.489019 0  0.632637 0.476741 0  0.689177 0.444553 0  0.708121 0.403702 0  0.715453 0.38144 0  0.732406 0.359166 0  0.7453650000000001 0.337089 0  0.72906 0.317581 0  0.629879 0.317522 0  0.59293 0.321884 0  0.568003 0.326991 0  0.55202 0.327775 0  0.546493 0.327054 0  0.542241 0.326499 0  1 0.9 0  1 0.8 0  1 0.7 0  1 0.6 0  1 0.5 0  1 0.4 0  1 0.3 0  1 0.2 0  1 0.1 0  0.9 0 0  0.8 0 0  0.7 0 0  0.6 0 0  0.5 0 0  0.4 0 0  0.3 0 0  0.2 0 0  0.1 0 0  0.1 1 0  0.2 1 0  0.3 1 0  0.4 1 0  0.5 1 0  0.6 1 0  0.7 1 0  0.8 1 0  0.9 1 0  0 0.1 0  0 0.2 0  0 0.3 0  0 0.4 0  0 0.5 0  0 0.6 0  0 0.7 0  0 0.8 0  0 0.9 0  0.535686 0.5031910000000001 0  0.753987 0.733359 0  0.167145 0.741436 0  0.173378 0.257204 0  0.733497 0.159862 0  0.554096 0.15788 0  0.849187 0.479053 0  0.488793 0.838452 0  0.138507 0.5592 0  0.30686 0.154944 0  0.348904 0.890523 0  0.058006 0.065099 0  0.06984899999999999 0.937917 0  0.93633 0.939704 0  0.934625 0.053613 0  0.343397 0.333452 0  0.473272 0.639943 0  0.433266 0.638072 0  0.415174 0.58269 0  0.533435 0.545042 0  0.390848 0.340652 0  0.53655 0.320242 0  0.127966 0.393775 0  0.83861 0.850455 0  0.635242 0.8551299999999999 0  0.852158 0.633441 0  0.653427 0.626848 0  0.861226 0.24292 0  0.166128 0.12976 0  0.216875 0.8698709999999999 0  0.458305 0.11179 0  0.84446 0.101633 0  0.202024 0.642528 0  0.644825 0.115855 0  0.671342 0.218358 0  0.251354 0.286186 0  0.262388 0.75153 0  0.063044 0.751571 0  0.068189 0.242962 0  0.435781 0.9053949999999999 0  0.934144 0.451133 0  0.568393 0.237622 0  0.814984 0.395506 0  0.752951 0.517227 0  0.456254 0.780699 0  0.073352 0.531116 0  0.337731 0.206071 0  0.363213 0.960371 0  0.330742 0.363592 0  0.516613 0.55705 0  0.369057 0.332992 0  0.500926 0.617309 0  0.498004 0.665534 0  0.412142 0.61178 0  0.454233 0.6366039999999999 0  0.422782 0.567496 0  0.541193 0.5214800000000001 0  0.439761 0.65557 0  0.5163 0.533672 0  0.414775 0.64562 0  0.40073 0.576135 0  0.430362 0.5880339999999999 0  0.385432 0.351492 0  0.400298 0.335397 0  0.398325 0.348194 0  0.528702 0.314885 0  0.540814 0.322334 0  0.534477 0.322953 0  0.619095 0.743583 0  0.885162 0.737972 0  0.08076 0.668849 0  0.90734 0.36634 0  0.09468699999999999 0.868937 0  0.759838 0.912152 0  0.901518 0.540898 0  0.747285 0.607479 0  0.229182 0.071641 0  0.06915399999999999 0.450091 0  0.244775 0.203309 0  0.076534 0.331755 0  0.897847 0.167826 0  0.578909 0.911415 0  0.07713299999999999 0.146341 0  0.477215 0.203448 0  0.922631 0.869341 0  0.517415 0.074785 0  0.297026 0.827793 0  0.7832710000000001 0.246505 0  0.74519 0.061079 0  0.36033 0.069068 0  0.210313 0.475228 0  0.859426 0.928758 0  0.5745479999999999 0.609182 0  0.243069 0.383398 0  0.283099 0.934598 0  0.417416 0.843141 0  0.643942 0.553164 0  0.112687 0.079336 0  0.281357 0.658386 0  0.765043 0.436177 0  0.611361 0.198486 0  0.234496 0.58911 0  0.206479 0.702638 0  0.679608 0.155818 0  0.62682 0.259978 0  0.690538 0.264164 0  0.448938 0.956308 0  0.808154 0.328403 0  0.379583 0.91913 0  0.308083 0.297769 0  0.312358 0.730249 0  0.563101 0.278576 0  0.435597 0.746198 0  0.385475 0.225229 0  0.572248 0.518034 0  0.357864 0.35422 0  0.497647 0.641694 0  0.458101 0.655768 0  0.360474 0.310727 0  0.467038 0.620139 0  0.47798 0.659909 0  0.41102 0.628072 0  0.48324 0.609015 0  0.427544 0.617941 0  0.388633 0.328253 0  0.405336 0.599404 0  0.408351 0.565178 0  0.42395 0.600985 0  0.431562 0.576523 0  0.424905 0.6551979999999999 0  0.398064 0.58782 0  0.427739 0.557934 0  0.5192909999999999 0.303443 0  0.53142 0.320293 0  0.5449000000000001 0.323642 0  0.537166 0.323513 0  0.153974 0.920841 0  0.9181859999999999 0.67343 0  0.759946 0.820588 0  0.5375259999999999 0.783091 0  0.816532 0.545843 0  0.813991 0.178083 0  0.836774 0.702023 0  0.149815 0.318856 0  0.662287 0.923338 0  0.680146 0.791192 0  0.708961 0.663172 0  0.9372779999999999 0.287318 0  0.574622 0.6881660000000001 0  0.5894740000000001 0.076262 0  0.502822 0.926683 0  0.222269 0.811068 0  0.380457 0.164786 0  0.15321 0.684154 0  0.458063 0.051413 0  0.161702 0.056026 0  0.199351 0.198818 0  0.298946 0.09553200000000001 0  0.902465 0.795949 0  0.121139 0.791477 0  0.906269 0.112287 0  0.056109 0.822332 0  0.512172 0.13237 0  0.940964 0.741805 0  0.888887 0.408777 0  0.354543 0.825964 0  0.808736 0.068638 0  0.068507 0.394071 0  0.719105 0.563843 0  0.247287 0.149664 0  0.293062 0.237128 0  0.240524 0.434997 0  0.141255 0.623289 0  0.945202 0.160621 0  0.502914 0.247629 0  0.144669 0.480811 0  0.665025 0.060817 0  0.728047 0.224344 0  0.861995 0.313312 0  0.200068 0.534235 0  0.253262 0.965623 0  0.893804 0.49307 0  0.604391 0.572456 0  0.947088 0.345347 0  0.439372 0.227307 0  0.629847 0.159823 0  0.273405 0.880181 0  0.302744 0.776823 0  0.781502 0.295365 0  0.275342 0.349602 0  0.7283849999999999 0.472798 0  0.229136 0.246478 0  0.807794 0.480346 0  0.709476 0.112786 0  0.275506 0.694991 0  0.771674 0.394419 0  0.449715 0.861802 0  0.419159 0.799696 0  0.674851 0.503139 0  0.280443 0.61016 0  0.572443 0.192538 0  0.393113 0.87525 0  0.405555 0.948428 0  0.330942 0.934103 0  0.540509 0.597101 0  0.312763 0.6689310000000001 0  0.254368 0.540179 0  0.595265 0.25915 0  0.606679 0.234099 0  0.657131 0.279138 0  0.722458 0.279478 0  0.333 0.308056 0  0.351529 0.246142 0  0.455714 0.7257940000000001 0  0.585239 0.295143 0  0.340062 0.72492 0  0.545593 0.293773 0  0.555449 0.545426 0  0.414311 0.737314 0  0.590854 0.502323 0  0.350507 0.368444 0  0.484423 0.625665 0  0.483899 0.674542 0  0.378137 0.317274 0  0.446416 0.646404 0  0.373532 0.347654 0  0.446876 0.619769 0  0.466106 0.666068 0  0.437545 0.609254 0  0.434988 0.565726 0  0.41462 0.656829 0  0.418803 0.556961 0  0.398425 0.327446 0  0.517803 0.310421 0  0.549516 0.322918 0  0.57701 0.842889 0  0.8291269999999999 0.773906 0  0.643235 0.684732 0  0.134281 0.207734 0  0.865997 0.055966 0  0.680959 0.723345 0  0.165229 0.8415550000000001 0  0.54558 0.959672 0  0.783726 0.656439 0  0.913315 0.595533 0  0.699439 0.860667 0  0.785839 0.125076 0  0.551673 0.037713 0  0.9200970000000001 0.223214 0  0.206406 0.299726 0  0.087064 0.596401 0  0.935644 0.394252 0  0.964557 0.252582 0  0.230124 0.928346 0  0.120579 0.271764 0  0.8572149999999999 0.524082 0  0.7670979999999999 0.5551469999999999 0  0.936094 0.507131 0  0.804064 0.59585 0  0.700565 0.608273 0  0.429773 0.174231 0  0.117746 0.727333 0  0.5389620000000001 0.730231 0  0.862761 0.359173 0  0.821444 0.284046 0  0.193552 0.35818 0  0.234923 0.505555 0  0.193209 0.421217 0  0.220144 0.755896 0  0.594015 0.131642 0  0.283813 0.195855 0  0.517519 0.213961 0  0.553509 0.639116 0  0.280391 0.378018 0  0.852183 0.436817 0  0.746983 0.197173 0  0.821806 0.221318 0  0.449853 0.828453 0  0.883758 0.453926 0  0.183484 0.589542 0  0.348384 0.129314 0  0.255254 0.838525 0  0.504849 0.798516 0  0.320344 0.863432 0  0.611669 0.525425 0  0.265864 0.804962 0  0.72056 0.521442 0  0.613372 0.6101220000000001 0  0.481262 0.881068 0  0.655778 0.191988 0  0.701921 0.196918 0  0.5658260000000001 0.5731810000000001 0  0.46914 0.240927 0  0.343219 0.173284 0  0.888786 0.278502 0  0.244113 0.6750930000000001 0  0.739546 0.417914 0  0.784023 0.355942 0  0.326805 0.265549 0  0.248616 0.6
[...]
<PointData  Vectors="f_21"> 
<DataArray  type="Float64"  Name="f_21"  NumberOfComponents="3" format="ascii">1.3456560485223399e+00 2.5236143437654612e-01 0.0000000000000000e+00  1.2959920304443369e+00 2.8862860038147042e-01 0.0000000000000000e+00  1.1385397841782683e+00 3.4983757506997964e-01 0.0000000000000000e+00  9.9644224762188904e-01 3.7357495785924510e-01 0.0000000000000000e+00  8.6103994361300218e-01 3.7502617248588205e-01 0.0000000000000000e+00  6.2931220094210771e-01 3.6252667650121612e-01 0.0000000000000000e+00  4.9094436440302897e-01 3.2359198517204324e-01 0.0000000000000000e+00  3.3710631355473020e-01 4.0733041225560873e-01 0.0000000000000000e+00  2.5899544955687226e-01 4.7640009279398376e-01 0.0000000000000000e+00  2.2954217412558220e-01 4.9340534342731635e-01 0.0000000000000000e+00  1.8283862644357354e-01 4.8468440685860609e-01 0.0000000000000000e+00  1.5713275316936162e-01 4.5843797154873284e-01 0.0000000000000000e+00  1.2345843254328893e-01 3.7689159093209790e-01 0.0000000000000000e+00  6.9655947942030824e-02 2.0824553639035734e-01 0.0000000000000000e+00  2.2788641642458234e-02 7.9439374788976766e-02 0.0000000000000000e+00  1.9223016942532783e-03 -1.5094753870982037e-02 0.0000000000000000e+00  4.3824244330260544e-04 -1.0258142960424026e-01 0.0000000000000000e+00  1.4049895948779680e-02 -1.9784001371056362e-01 0.0000000000000000e+00  4.3132761305797136e-02 -2.8459652821418002e-01 0.0000000000000000e+00  9.6703015771949341e-02 -3.7786920981784833e-01 0.0000000000000000e+00  1.9815418152196954e-01 -4.8891896577704830e-01 0.0000000000000000e+00  2.8302551957282091e-01 -5.3216434960617953e-01 0.0000000000000000e+00  3.6709916868154074e-01 -5.1856998624189798e-01 0.0000000000000000e+00  6.1972264699912982e-01 -5.5858085796739931e-01 0.0000000000000000e+00  8.2025792130785646e-01 -6.0904725404776339e-01 0.0000000000000000e+00  9.8629709631963558e-01 -6.1258144754043686e-01 0.0000000000000000e+00  1.2353762381307207e+00 -5.9775955200519926e-01 0.0000000000000000e+00  1.3607463877936699e+00 -5.4033169447901008e-01 0.0000000000000000e+00  1.4157570583832710e+00 -4.7591288025852302e-01 0.0000000000000000e+00  1.4419967775962739e+00 -4.2807380668835254e-01 0.0000000000000000e+00  1.5238990289812397e+00 -4.3075222871991092e-01 0.0000000000000000e+00  1.6600529172803538e+00 -4.6864651074148572e-01 0.0000000000000000e+00  1.7321471661146204e+00 -5.1767222978616856e-01 0.0000000000000000e+00  1.7613099495398983e+00 -6.0358366733112823e-01 0.0000000000000000e+00  1.7600981756681651e+00 -6.8278832224327413e-01 0.0000000000000000e+00  1.7819709585439474e+00 -7.5796641783214425e-01 0.0000000000000000e+00  1.8267208048468251e+00 -7.8706112143802098e-01 0.0000000000000000e+00  1.9336721594951858e+00 -8.2390565068521193e-01 0.0000000000000000e+00  2.0969743884073173e+00 -8.6228804475868959e-01 0.0000000000000000e+00  2.1617766998982040e+00 -8.5647372268361632e-01 0.0000000000000000e+00  2.2497681602314317e+00 -8.2062374743249222e-01 0.0000000000000000e+00  2.2907161587328377e+00 -7.6094762965571816e-01 0.0000000000000000e+00  2.2966141357655183e+00 -7.0130571380624429e-01 0.0000000000000000e+00  2.2675012601653921e+00 -6.4153027894986192e-01 0.0000000000000000e+00  2.2088990113931994e+00 -6.0539682190006117e-01 0.0000000000000000e+00  2.1379826954054857e+00 -6.2317550197077343e-01 0.0000000000000000e+00  2.0652989749727615e+00 -6.3568320091831287e-01 0.0000000000000000e+00  2.0057159227139603e+00 -5.8927870129816839e-01 0.0000000000000000e+00  2.0187229182213251e+00 -5.0986528790826924e-01 0.0000000000000000e+00  2.0545182945236586e+00 -4.6568361943105796e-01 0.0000000000000000e+00  2.1073337612495613e+00 -4.2811753203949721e-01 0.0000000000000000e+00  2.1686083112830756e+00 -4.0676098457084348e-01 0.0000000000000000e+00  2.2284061502039130e+00 -3.7457326277566311e-01 0.0000000000000000e+00  2.2600744294715733e+00 -3.2644498697283436e-01 0.0000000000000000e+00  2.2897941630139460e+00 -2.4678529084207465e-01 0.0000000000000000e+00  2.3046012546721473e+00 -1.6046601216931711e-01 0.0000000000000000e+00  2.2995549695540829e+00 -8.7054051131682131e-02 0.0000000000000000e+00  2.2901059858818118e+00 -1.3737544221528484e-02 0.0000000000000000e+00  2.2835266526717848e+00 3.5864221807840789e-02 0.0000000000000000e+00  2.2722316156044058e+00 7.6464229867361774e-02 0.0000000000000000e+00  2.2535630095508852e+00 1.1508924260579124e-01 0.0000000000000000e+00  2.2248287476753590e+00 1.4377599472156508e-01 0.0000000000000000e+00  2.1829815519369911e+00 1.6842093588521978e-01 0.0000000000000000e+00  2.1408289637472842e+00 1.7819850569052031e-01 0.0000000000000000e+00  2.1260714755609795e+00 1.7499417948484380e-01 0.0000000000000000e+00  2.0942306495928014e+00 1.7756422532218005e-01 0.0000000000000000e+00  2.0502894346088483e+00 1.8450288338748735e-01 0.0000000000000000e+00  1.9368329445588159e+00 1.9592376045491855e-01 0.0000000000000000e+00  1.8378823355910860e+00 2.0471704546865502e-01 0.0000000000000000e+00  1.7361489638541079e+00 1.9693592317795566e-01 0.0000000000000000e+00  1.6800778613791703e+00 1.9220490236983642e-01 0.0000000000000000e+00  1.6217028496100683e+00 1.9896073377267248e-01 0.0000000000000000e+00  1.5477751481536335e+00 2.0928925191319619e-01 0.0000000000000000e+00  1.4436635322036293e+00 2.2041424318572139e-01 0.0000000000000000e+00  1.3841227269328296e+00 2.2301861279942209e-01 0.0000000000000000e+00  1.3653552344964437e+00 2.3001008644149384e-01 0.0000000000000000e+00  1.3477996200308717e+00 2.4778492259349430e-01 0.0000000000000000e+00  1.7146365027947614e+00 2.1191539917110724e-01 0.0000000000000000e+00  1.5719842112976208e+00 -1.0271679274801528e-01 0.0000000000000000e+00  0.0000000000000000e+00 0.0000000000000000e+00 0.0000000000000000e+00  0.0000000000000000e+00 0.0000000000000000e+00 0.0000000000000000e+00  1.3423272134064179e+00 2.5620598561786845e-01 0.0000000000000000e+00  1.3366719739311197e+00 2.6133183663602327e-01 0.0000000000000000e+00  1.3280142977142477e+00 2.6806798600652032e-01 0.0000000000000000e+00  1.3152233854469553e+00 2.7703388527209677e-01 0.0000000000000000e+00  1.2760107430247487e+00 2.9922642314922387e-01 0.0000000000000000e+00  1.2469683808958867e+00 3.1298623279034155e-01 0.0000000000000000e+00  1.2045568746564246e+00 3.2974607918650295e-01 0.0000000000000000e+00  1.0767465122128432e+00 3.6349007760348639e-01 0.0000000000000000e+00  7.7570618828913407e-01 3.6998297144314474e-01 0.0000000000000000e+00  7.0370365923492195e-01 3.6647499796867727e-01 0.0000000000000000e+00  4.2584808276120689e-01 3.5543380181022949e-01 0.0000000000000000e+00  3.7884347458076789e-01 3.7897259418620766e-01 0.0000000000000000e+00  3.0278202992722492e-01 4.3470439237988762e-01 0.0000000000000000e+00  2.7790377821355705e-01 4.5777621564725740e-01 0.0000000000000000e+00  2.0821561123106069e-01 4.8942232143571596e-01 0.0000000000000000e+00  1.4850212317600403e-01 4.3846753448706210e-01 0.0000000000000000e+00  1.3736427751367503e-01 4.1213495876686945e-01 0.0000000000000000e+00  1.0627567337090549e-01 3.3604298845332936e-01 0.0000000000000000e+00  8.7334571445051939e-02 2.8169148102610170e-01 0.0000000000000000e+00  4.4938409261160252e-02 1.5091404501178976e-01 0.0000000000000000e+00  6.5457902196249381e-03 -1.5412122257031405e-01 0.0000000000000000e+00  1.4870668734477391e-01 -4.4105019980619670e-01 0.0000000000000000e+00  4.4509779103010472e-01 -5.4173933891803605e-01 0.0000000000000000e+00  5.2610730654371796e-01 -5.5773197761172932e-01 0.0000000000000000e+00  1.1290323971891694e+00 -6.1749882096899200e-01 0.0000000000000000e+00  1.2978500472391075e+00 -5.7149703327299917e-01 0.0000000000000000e+00  1.4671282913849428e+00 -4.1211031190309028e-01 0.0000000000000000e+00  1.7459988870811052e+00 -5.5431927925206992e-01 0.0000000000000000e+00  1.7723389270459258e+00 -7.2521253681951836e-01 0.0000000000000000e+00  1.8729262352130376e+00 -8.0277400741027072e-01 0.0000000000000000e+00  2.0020029209617238e+00 -8.4035265355756994e-01 0.0000000000000000e+00  2.0555417914946754e+00 -8.5290440166700754e-01 0.0000000000000000e+00  2.2000994470300248e+00 -8.4088453982061717e-01 0.0000000000000000e+00  2.1781769067483503e+00 -6.1313884370880323e-01 0.0000000000000000e+00  2.0116751422526469e+00 -5.5442166434339246e-01 0.0000000000000000e+00  2.2023838793130883e+00 -3.8819438725871591e-01 0.0000000000000000e+00  2.2986420897061239e+00 -1.9751196438323787e-01 0.0000000000000000e+00  2.2958784123559370e+00 -4.5868354234866814e-02 0.0000000000000000e+00  2.2649997212455650e+00 9.4178583356967771e-02 0.0000000000000000e+00  2.2021276816179562e+00 1.5921465627204204e-01 0.0000000000000000e+00  2.1590218906183773e+00 1.7604085042810064e-01 0.0000000000000000e+00  2.1127444906833865e+00 1.7432656629215701e-01 0.0000000000000000e+00  2.0069052641157512e+00 1.9773779355763807e-01 0.0000000000000000e+00  1.7869000054258828e+00 1.9921325483507554e-01 0.0000000000000000e+00  1.4920247821381114e+00 2.1465477885575254e-01 0.0000000000000000e+00  1.4050444891147853e+00 2.2150262806684323e-01 0.0000000000000000e+00  1.3715131168672288e+00 2.2595184595171897e-01 0.0000000000000000e+00  1.3600225563217359e+00 2.3530029876238667e-01 0.0000000000000000e+00  1.3549210397037379e+00 2.4028175852164901e-01 0.0000000000000000e+00  1.3508872212776626e+00 2.4439737041979431e-01 0.0000000000000000e+00  1.8723219996806384e+00 2.4886518655571480e-01 0.0000000000000000e+00  2.0431504953400568e+00 2.7103647649448293e-01 0.0000000000000000e+00  2.1967196411699357e+00 2.5759317288013678e-01 0.0000000000000000e+00  2.3052294585312247e+00 2.0314510551211873e-01 0.0000000000000000e+00  2.3363250182425608e+00 1.0118551204520168e-01 0.0000000000000000e+00  2.2727156924887577e+00 -1.2337222914798445e-02 0.0000000000000000e+00  2.1145679095505217e+00 -9.9207867489214757e-02 0.0000000000000000e+00  1.9236540912287314e+00 -1.2749084852069190e-01 0.0000000000000000e+00  1.7475604162746177e+00 -1.2326271908780610e-01 0.0000000000000000e+00  1.4730116898556385e+00 7.8914860739104031e-02 0.0000000000000000e+00  1.3666660066982508e+00 2.4608170269398746e-01 0.0000000000000000e+00  1.2445080828905644e+00 3.7394258194005137e-01 0.0000000000000000e+00  1.1033559496517928e+00 4.6862234947344350e-01 0.0000000000000000e+00  9.6480156773897974e-01 5.2994574528539717e-01 0.0000000000000000e+00  8.3408460773780846e-01 5.3379977510232701e-01 0.0000000000000000e+00  6.8903693222515816e-01 4.5391463447241737e-01 0.0000000000000000e+00  5.0129777105358697e-01 3.1068197224097338e-01 0.0000000000000000e+00  2.7533292094271072e-01 1.6477824808715213e-01 0.0000000000000000e+00  3.2913108707873179e-01 -2.2294376921588974e-01 0.0000000000000000e+00  5.7387192588421232e-01 -3.9869205986650819e-01 0.0000000000000000e+00  7.5769730996579110e-01 -5.7265979695273173e-01 0.0000000000000000e+00  8.6369017638626222e-01 -6.4665222039814052e-01 0.0000000000000000e+00  9.6306745828780038e-01 -5.5866461485390340e-01 0.0000000000000000e+00  1.1050210549703128e+00 -3.8950113647611040e-01 0.0000000000000000e+00  1.2860038140086805e+00 -2.0815758145081489e-01 0.0000000000000000e+00  1.4643772612436741e+00 -5.9657614832901197e-02 0.0000000000000000e+00  1.6089840699229292e+00 6.6795561549903237e-02 0.0000000000000000e+00  0.0000000000000000e+00 0.0000000000000000e+00 0.0000000000000000e+00  0.0000000000000000e+00 0.0000000000000000e+00 0.0000000000000000e+00  0.0000000000000000e+00 0.0000000000000000e+00 0.0000000000000000e+00  0.0000000000000000e+00 0.0000000000000000e+00 0.0000000000000000e+00  0.0000000000000000e+00 0.0000000000000000e+00 0.0000000000000000e+00  0.0000000000000000e+00 0.0000000000000000e+00 0.0000000000000000e+00  0.0000000000000000e+00 0.0000000000000000e+00 0.0000000000000000e+00  0.0000000000000000e+00 0.0000000000000000e+00 0.0000000000000000e+00  0.0000000000000000e+00 0.0000000000000000e+00 0.0000000000000000e+00  2.2735137846264859e+00 -2.9138503570138569e-01 0.0000000000000000e+00  1.8722851439241204e+00 3.2015858175012742e-02 0.0000000000000000e+00  1.9573325095312749e-01 -1.1234029804808837e-01 0.0000000000000000e+00  1.9503872054783147e-01 4.9528439925544038e-02 0.0000000000000000e+00  1.5176013199704124e+00 2.5656259600798337e-01 0.0000000000000000e+00  1.1571792139085626e+00 3.9715447965046113e-01 0.0000000000000000e+00  2.2698469533018275e+00 1.1127315384601809e-01 0.0000000000000000e+00  1.1422123286118953e+00 -4.6755192169489390e-01 0.0000000000000000e+00  2.5280970836325236e-03 -4.3680788482503424e-02 0.0000000000000000e+00  6.0173785777481070e-01 3.4439887930145746e-01 0.0000000000000000e+00  7.8689745653734045e-01 -5.7365592473702376e-01 0.0000000000000000e+00  1.1505595793386388e-01 5.9039390392588105e-02 0.0000000000000000e+00  1.6774821814669547e-01 -1.1182960258857444e-01 0.0000000000000000e+00  1.7416211876735750e+00 1.4008195919905536e-01 0.0000000000000000e+00  1.6046556425666343e+00 -3.2488963621441115e-04 0.0000000000000000e+00  2.2613987840461219e-01 2.7401225145386998e-01 0.0000000000000000e+00  1.8826636136234649e+00 -4.9564683616775146e-01 0.0000000000000000e+00  1.8902979384240046e+00 -6.6126117918467520e-01 0.0000000000000000e+00  2.1352354175548931e+00 -7.4182214679067349e-01 0.0000000000000000e+00  2.1710533972661157e+00 -2.9781872427698375e-01 0.0000000000000000e+00  2.1213032404273668e-01 4.2936273523795460e-01 0.0000000000000000e+00  1.3371181161741741e+00 2.5186350422336634e-01 0.0000000000000000e+00  2.6650126790205536e-02 -2.8579420819972799e-02 0.0000000000000000e+00  1.7710968641101910e+00 6.1123178641570325e-02 0.0000000000000000e+00  1.4270752909743698e+00 -2.2340266817039919e-01 0.0000000000000000e+00  2.1592619502604156e+00 1.4185940990559956e-01 0.0000000000000000e+00  1.9904392089325289e+00 -3.5054443617029009e-02 0.0000000000000000e+00  1.8680020810342082e+00 6.8341347904946684e-02 0.0000000000000000e+00  2.9878913038576249e-01 1.5331298472888272e-01 0.0000000000000000e+00  4.6292525092972370e-01 -3.1564220801164594e-01 0.0000000000000000e+00  9.2750906346459772e-01 4.8336185397972292e-01 0.0000000000000000e+00  1.5856224554099863e+00 1.3690765257968085e-01 0.0000000000000000e+00  7.7289659922355314e-02 -1.0160492499132727e-01 0.0000000000000000e+00  1.2961711399720683e+00 3.6224054198276073e-01 0.0000000000000000e+00  1.4914616466491175e+00 2.7497635271983478e-01 0.0000000000000000e+00  2.7105405011681444e-01 1.0330177226142682e-01 0.0000000000000000e+00  3.7531933871810169e-01 -2.5544144595452400e-01 0.0000000000000000e+00  6.8667928773452111e-02 -2.4453849176912151e-02 0.0000000000000000e+00  6.8143880278466254e-02 6.7008834302642291e-04 0.0000000000000000e+00  9.5020016429771825e-01 -5.8496533494312120e-01 0.0000000000000000e+00  2.2847286874307802e+00 7.6828152837988911e-02 0.0000000000000000e+00  1.2813409324665406e+00 3.0523918028346719e-01 0.0000000000000000e+00  2.1916021929466689e+00 9.0453983173948080e-02 0.0000000000000000e+00  2.2382746787617283e+00 1.1025373930657120e-01 0.0000000000000000e+00  1.1879677703286298e+00 -4.6349942532133037e-01 0.0000000000000000e+00  1.3111127805150028e-04 -2.0371724996157508e-02 0.0000000000000000e+00  6.4072299247257325e-01 3.5226978106684648e-01 0.0000000000000000e+00  8.1567943091224748e-01 -6.1595340323104175e-01 0.0000000000000000e+00  1.3957933406942880e-01 2.2142821029728063e-01 0.0000000000000000e+00  2.1415033084647828e+00 -3.4589547416791089e-01 0.0000000000000000e+00  2.3396765774401357e-01 3.6008233094348635e-01 0.0000000000000000e+00  1.9654949812455622e+00 -3.9480234099876316e-01 0.0000000000000000e+00  1.7776772099199203e+00 -3.9616758338246655e-01 0.0000000000000000e+00  2.0048163600553113e+00 -7.5423352694642676e-01 0.0000000000000000e+00  1.8956872983157365e+00 -5.7224966972454105e-01 0.0000000000000000e+00  2.2032771417485852e+00 -7.0811894302846368e-01 0.0000000000000000e+00  2.2283385932621957e+00 -2.7624422278933231e-01 0.0000000000000000e+00  1.8175316221316196e+00 -6.3421518893223816e-01 0.0000000000000000e+00  2.2005244697339021e+00 -3.4504823347646491e-01 0.0000000000000000e+00  1.8592506452152939e+00 -7.4119287310461357e-01 0.0000000000000000e+00  2.1646920379499823e+00 -8.0549612227994716e-01 0.0000000000000000e+00  2.1108925652240367e+00 -6.7473518017811429e-01 0.0000000000000000e+00  1.7740305631903427e-01 4.1060769509046635e-01 0.0000000000000000e+00  2.2924154750996600e-01 4.5992356269427537e-01 0.0000000000000000e+00  1.8810094174360178e-01 4.5305988502994854e-01 0.0000000000000000e+00  1.3183802732394034e+00 2.6325179039308139e-01 0.0000000000000000e+00  1.3442130340750391e+00 2.4687466614405315e-01 0.0000000000000000e+00  1.3401854255180761e+00 2.5347397223102758e-01 0.0000000000000000e+00  1.6396748169327282e+00 -1.5526614488878657e-01 0.0000000000000000e+00  2.0305569005533970e+00 1.4613404572284064e-01 0.0000000000000000e+00  4.2914438973685444e-02 -1.9513410286644071e-02 0.0000000000000000e+00  2.1734216920714533e+00 3.7188152918884165e-02 0.0000000000000000e+00  1.8220634171804609e-01 -1.0933388769536703e-01 0.0000000000000000e+00  1.5400614523894189e+00 -6.4547312205873689e-02 0.0000000000000000e+00  2.2793467796765778e+00 1.3550745851883955e-01 0.0000000000000000e+00  2.1091650939627629e+00 8.4013189425537635e-02 0.0000000000000000e+00  4.8222815617801179e-01 3.0125665547045766e-01 0.0000000000000000e+00  2.2689608411255230e-03 -2.3222239206963608e-02 0.0000000000000000e+00  4.0553158933189032e-01 1.8847419637814869e-01 0.0000000000000000e+00  3.8202843498852404e-02 -1.9063268965033499e-02 0.0000000000000000e+00  1.7674699455880314e+00 3.6896039254697782e-02 0.0000000000000000e+00  1.2190383456780438e+00 -3.7209202260786406e-01 0.0000000000000000e+00  1.1831742305951394e-01 4.1296159590286360e-02 0.0000000000000000e+00  1.0059515268449559e+00 4.1399494666972747e-01 0.0000000000000000e+00  1.8444264539959516e+00 1.4747895116068438e-01 0.0000000000000000e+00  1.0232603693001265e+00 4.8256815045811852e-01 0.0000000000000000e+00  6.3701896186748674e-01 -4.3061303256938838e-01 0.0000000000000000e+00  1.7503780191747027e+00 1.6121141094832944e-01 0.0000000000000000e+00  1.3855171893418314e+00 2.9297685161492742e-01 0.0000000000000000e+00  7.4749485195957233e-01 4.7319770676258788e-01 0.0000000000000000e+00  -7.6978118529837571e-03 -4.2765687878388227e-02 0.0000000000000000e+00  1.6620687761806174e+00 4.8173756751627446e-02 0.0000000000000000e+00  1.9962034380502052e+00 -1.8674979799837421e-01 0.0000000000000000e+00  7.5659326695957166e-02 2.5622292874718899e-02 0.0000000000000000e+00  6.6480594437300833e-01 -5.0301100624573136e-01 0.0000000000000000e+00  9.5292523549895558e-01 -5.7185929324851126e-01 0.0000000000000000e+00  2.1527780139186232e+00 -2.8887893584953139e-02 0.0000000000000000e+00  2.2277987806400293e-01 1.2252115581410508e-01 0.0000000000000000e+00  1.3566246573246796e-01 -2.2957993054514414e-01 0.0000000000000000e+00  2.2466741056786725e+00 1.2009302052456039e-01 0.0000000000000000e+00  1.3343710689680535e+00 3.2140002389715205e-01 0.0000000000000000e+00  2.0564074353616398e-02 -1.1432189184423922e-01 0.0000000000000000e+00  1.7943361354354198e-01 -1.3273432086576820e-01 0.0000000000000000e+00  1.4158747978866411e+00 3.0795070791051937e-01 0.0000000000000000e+00  1.4469719618685100e+00 2.6133515265246682e-01 0.0000000000000000e+00  1.5988631219448501e+00 2.3916438394130668e-01 0.0000000000000000e+00  9.4049982195883663e-01 -5.9789984809149732e-01 0.0000000000000000e+00  2.0152290950851892e+00 8.6429344765122526e-02 0.0000000000000000e+00  8.4192721077448729e-01 -6.0655735985849801e-01 0.0000000000000000e+00  3.2120911496459703e-01 1.8879129978537890e-01 0.0000000000000000e+00  3.8027538985805365e-01 -3.4585067740481196e-01 0.0000000000000000e+00  1.3223056155465631e+00 2.6385619986321124e-01 0.0000000000000000e+00  1.2727588540910795e+00 -4.6197126939470029e-01 0.0000000000000000e+00  7.5565103915017529e-01 4.1422418965213897e-01 0.0000000000000000e+00  2.2313585743682034e+00 -1.9375750002646042e-01 0.0000000000000000e+00  1.6805447439696455e-01