<?xml version="1.0"?>
<VTKFile type="UnstructuredGrid"  version="0.1"  >
<UnstructuredGrid>
<Piece  NumberOfPoints="2868" NumberOfCells="5400">
<Points>
<DataArray  type="Float64"  NumberOfComponents="3"  format="ascii">0.534923 0.326073 0  0.510642 0.314196 0  0.466125 0.293082 0  0.436448 0.281205 0  0.409468 0.275927 0  0.368998 0.270648 0  0.35281 0.275927 0  0.381139 0.302319 0  0.405421 0.326073 0  0.410817 0.33531 0  0.408119 0.349826 0  0.400025 0.357744 0  0.375743 0.368301 0  0.329878 0.392055 0  0.297502 0.432963 0  0.282663 0.476511 0  0.285361 0.524018 0  0.298851 0.572845 0  0.317737 0.6045160000000001 0  0.337972 0.6361869999999999 0  0.360904 0.674457 0  0.368998 0.69953 0  0.359555 0.7219640000000001 0  0.360904 0.757594 0  0.370347 0.766831 0  0.381139 0.762872 0  0.390582 0.741758 0  0.404072 0.720644 0  0.424307 0.707448 0  0.447239 0.702169 0  0.480964 0.704808 0  0.479615 0.6889729999999999 0  0.468823 0.675776 0  0.447239 0.6691780000000001 0  0.428354 0.6691780000000001 0  0.410817 0.6639 0  0.404072 0.653343 0  0.395978 0.628269 0  0.387884 0.59132 0  0.389233 0.576804 0  0.397327 0.557009 0  0.410817 0.547772 0  0.424307 0.546452 0  0.437797 0.55305 0  0.44589 0.5662469999999999 0  0.441843 0.582082 0  0.439145 0.5979179999999999 0  0.449937 0.609795 0  0.468823 0.603196 0  0.479615 0.59 0  0.489058 0.570205 0  0.494454 0.546452 0  0.505246 0.522699 0  0.522783 0.509502 0  0.55246 0.494986 0  0.586185 0.484429 0  0.615863 0.48047 0  0.64554 0.473872 0  0.6671240000000001 0.461995 0  0.683312 0.451438 0  0.696802 0.435603 0  0.703547 0.417128 0  0.7116400000000001 0.393374 0  0.7183850000000001 0.37226 0  0.7251300000000001 0.364342 0  0.739969 0.353785 0  0.7453650000000001 0.344548 0  0.7453650000000001 0.327393 0  0.737271 0.318155 0  0.7183850000000001 0.316835 0  0.7008490000000001 0.319475 0  0.677916 0.318155 0  0.650936 0.316835 0  0.610467 0.318155 0  0.57944 0.324753 0  0.559205 0.328712 0  0.5389699999999999 0.326073 0  1 1 0  1 0 0  0 0 0  0 1 0  0.532238 0.32476 0  0.528748 0.323052 0  0.52421 0.320833 0  0.518311 0.317947 0  0.503447 0.310783 0  0.494093 0.306347 0  0.481933 0.30058 0  0.452151 0.28749 0  0.392327 0.273691 0  0.379141 0.271971 0  0.360474 0.283066 0  0.369797 0.291752 0  0.391424 0.31238 0  0.399335 0.32012 0  0.40958 0.341964 0  0.393939 0.36039 0  0.386028 0.36383 0  0.364248 0.374254 0  0.349304 0.381994 0  0.315801 0.409841 0  0.292986 0.551616 0  0.350934 0.657818 0  0.360127 0.737055 0  0.360566 0.748664 0  0.385245 0.753692 0  0.396447 0.732578 0  0.466301 0.703661 0  0.459439 0.672908 0  0.418442 0.666195 0  0.400553 0.642441 0  0.39255 0.612619 0  0.389913 0.60058 0  0.392752 0.568197 0  0.444131 0.573132 0  0.458149 0.606926 0  0.5005540000000001 0.533026 0  0.571522 0.489019 0  0.632637 0.476741 0  0.689177 0.444553 0  0.708121 0.403702 0  0.715453 0.38144 0  0.732406 0.359166 0  0.7453650000000001 0.337089 0  0.72906 0.317581 0  0.629879 0.317522 0  0.59293 0.321884 0  0.568003 0.326991 0  0.55202 0.327775 0  0.546493 0.327054 0  0.542241 0.326499 0  1 0.9 0  1 0.8 0  1 0.7 0  1 0.6 0  1 0.5 0  1 0.4 0  1 0.3 0  1 0.2 0  1 0.1 0  0.9 0 0  0.8 0 0  0.7 0 0  0.6 0 0  0.5 0 0  0.4 0 0  0.3 0 0  0.2 0 0  0.1 0 0  0.1 1 0  0.2 1 0  0.3 1 0  0.4 1 0  0.5 1 0  0.6 1 0  0.7 1 0  0.8 1 0  0.9 1 0  0 0.1 0  0 0.2 0  0 0.3 0  0 0.4 0  0 0.5 0  0 0.6 0  0 0.7 0  0 0.8 0  0 0.9 0  0.535686 0.5031910000000001 0  0.753987 0.733359 0  0.167145 0.741436 0  0.173378 0.257204 0  0.733497 0.159862 0  0.554096 0.15788 0  0.849187 0.479053 0  0.488793 0.838452 0  0.138507 0.5592 0  0.30686 0.154944 0  0.348904 0.890523 0  0.058006 0.065099 0  0.06984899999999999 0.937917 0  0.93633 0.939704 0  0.934625 0.053613 0  0.343397 0.333452 0  0.473272 0.639943 0  0.433266 0.638072 0  0.415174 0.58269 0  0.533435 0.545042 0  0.390848 0.340652 0  0.53655 0.320242 0  0.127966 0.393775 0  0.83861 0.850455 0  0.635242 0.8551299999999999 0  0.852158 0.633441 0  0.653427 0.626848 0  0.861226 0.24292 0  0.166128 0.12976 0  0.216875 0.8698709999999999 0  0.458305 0.11179 0  0.84446 0.101633 0  0.202024 0.642528 0  0.644825 0.115855 0  0.671342 0.218358 0  0.251354 0.286186 0  0.262388 0.75153 0  0.063044 0.751571 0  0.068189 0.242962 0  0.435781 0.9053949999999999 0  0.934144 0.451133 0  0.568393 0.237622 0  0.814984 0.395506 0  0.752951 0.517227 0  0.456254 0.780699 0  0.073352 0.531116 0  0.337731 0.206071 0  0.363213 0.960371 0  0.330742 0.363592 0  0.516613 0.55705 0  0.369057 0.332992 0  0.500926 0.617309 0  0.498004 0.665534 0  0.412142 0.61178 0  0.454233 0.6366039999999999 0  0.422782 0.567496 0  0.541193 0.5214800000000001 0  0.439761 0.65557 0  0.5163 0.533672 0  0.414775 0.64562 0  0.40073 0.576135 0  0.430362 0.5880339999999999 0  0.385432 0.351492 0  0.400298 0.335397 0  0.398325 0.348194 0  0.528702 0.314885 0  0.540814 0.322334 0  0.534477 0.322953 0  0.619095 0.743583 0  0.885162 0.737972 0  0.08076 0.668849 0  0.90734 0.36634 0  0.09468699999999999 0.868937 0  0.759838 0.912152 0  0.901518 0.540898 0  0.747285 0.607479 0  0.229182 0.071641 0  0.06915399999999999 0.450091 0  0.244775 0.203309 0  0.076534 0.331755 0  0.897847 0.167826 0  0.578909 0.911415 0  0.07713299999999999 0.146341 0  0.477215 0.203448 0  0.922631 0.869341 0  0.517415 0.074785 0  0.297026 0.827793 0  0.7832710000000001 0.246505 0  0.74519 0.061079 0  0.36033 0.069068 0  0.210313 0.475228 0  0.859426 0.928758 0  0.5745479999999999 0.609182 0  0.243069 0.383398 0  0.283099 0.934598 0  0.417416 0.843141 0  0.643942 0.553164 0  0.112687 0.079336 0  0.281357 0.658386 0  0.765043 0.436177 0  0.611361 0.198486 0  0.234496 0.58911 0  0.206479 0.702638 0  0.679608 0.155818 0  0.62682 0.259978 0  0.690538 0.264164 0  0.448938 0.956308 0  0.808154 0.328403 0  0.379583 0.91913 0  0.308083 0.297769 0  0.312358 0.730249 0  0.563101 0.278576 0  0.435597 0.746198 0  0.385475 0.225229 0  0.572248 0.518034 0  0.357864 0.35422 0  0.497647 0.641694 0  0.458101 0.655768 0  0.360474 0.310727 0  0.467038 0.620139 0  0.47798 0.659909 0  0.41102 0.628072 0  0.48324 0.609015 0  0.427544 0.617941 0  0.388633 0.328253 0  0.405336 0.599404 0  0.408351 0.565178 0  0.42395 0.600985 0  0.431562 0.576523 0  0.424905 0.6551979999999999 0  0.398064 0.58782 0  0.427739 0.557934 0  0.5192909999999999 0.303443 0  0.53142 0.320293 0  0.5449000000000001 0.323642 0  0.537166 0.323513 0  0.153974 0.920841 0  0.9181859999999999 0.67343 0  0.759946 0.820588 0  0.5375259999999999 0.783091 0  0.816532 0.545843 0  0.813991 0.178083 0  0.836774 0.702023 0  0.149815 0.318856 0  0.662287 0.923338 0  0.680146 0.791192 0  0.708961 0.663172 0  0.9372779999999999 0.287318 0  0.574622 0.6881660000000001 0  0.5894740000000001 0.076262 0  0.502822 0.926683 0  0.222269 0.811068 0  0.380457 0.164786 0  0.15321 0.684154 0  0.458063 0.051413 0  0.161702 0.056026 0  0.199351 0.198818 0  0.298946 0.09553200000000001 0  0.902465 0.795949 0  0.121139 0.791477 0  0.906269 0.112287 0  0.056109 0.822332 0  0.512172 0.13237 0  0.940964 0.741805 0  0.888887 0.408777 0  0.354543 0.825964 0  0.808736 0.068638 0  0.068507 0.394071 0  0.719105 0.563843 0  0.247287 0.149664 0  0.293062 0.237128 0  0.240524 0.434997 0  0.141255 0.623289 0  0.945202 0.160621 0  0.502914 0.247629 0  0.144669 0.480811 0  0.665025 0.060817 0  0.728047 0.224344 0  0.861995 0.313312 0  0.200068 0.534235 0  0.253262 0.965623 0  0.893804 0.49307 0  0.604391 0.572456 0  0.947088 0.345347 0  0.439372 0.227307 0  0.629847 0.159823 0  0.273405 0.880181 0  0.302744 0.776823 0  0.781502 0.295365 0  0.275342 0.349602 0  0.7283849999999999 0.472798 0  0.229136 0.246478 0  0.807794 0.480346 0  0.709476 0.112786 0  0.275506 0.694991 0  0.771674 0.394419 0  0.449715 0.861802 0  0.419159 0.799696 0  0.674851 0.503139 0  0.280443 0.61016 0  0.572443 0.192538 0  0.393113 0.87525 0  0.405555 0.948428 0  0.330942 0.934103 0  0.540509 0.597101 0  0.312763 0.6689310000000001 0  0.254368 0.540179 0  0.595265 0.25915 0  0.606679 0.234099 0  0.657131 0.279138 0  0.722458 0.279478 0  0.333 0.308056 0  0.351529 0.246142 0  0.455714 0.7257940000000001 0  0.585239 0.295143 0  0.340062 0.72492 0  0.545593 0.293773 0  0.555449 0.545426 0  0.414311 0.737314 0  0.590854 0.502323 0  0.350507 0.368444 0  0.484423 0.625665 0  0.483899 0.674542 0  0.378137 0.317274 0  0.446416 0.646404 0  0.373532 0.347654 0  0.446876 0.619769 0  0.466106 0.666068 0  0.437545 0.609254 0  0.434988 0.565726 0  0.41462 0.656829 0  0.418803 0.556961 0  0.398425 0.327446 0  0.517803 0.310421 0  0.549516 0.322918 0  0.57701 0.842889 0  0.8291269999999999 0.773906 0  0.643235 0.684732 0  0.134281 0.207734 0  0.865997 0.055966 0  0.680959 0.723345 0  0.165229 0.8415550000000001 0  0.54558 0.959672 0  0.783726 0.656439 0  0.913315 0.595533 0  0.699439 0.860667 0  0.785839 0.125076 0  0.551673 0.037713 0  0.9200970000000001 0.223214 0  0.206406 0.299726 0  0.087064 0.596401 0  0.935644 0.394252 0  0.964557 0.252582 0  0.230124 0.928346 0  0.120579 0.271764 0  0.8572149999999999 0.524082 0  0.7670979999999999 0.5551469999999999 0  0.936094 0.507131 0  0.804064 0.59585 0  0.700565 0.608273 0  0.429773 0.174231 0  0.117746 0.727333 0  0.5389620000000001 0.730231 0  0.862761 0.359173 0  0.821444 0.284046 0  0.193552 0.35818 0  0.234923 0.505555 0  0.193209 0.421217 0  0.220144 0.755896 0  0.594015 0.131642 0  0.283813 0.195855 0  0.517519 0.213961 0  0.553509 0.639116 0  0.280391 0.378018 0  0.852183 0.436817 0  0.746983 0.197173 0  0.821806 0.221318 0  0.449853 0.828453 0  0.883758 0.453926 0  0.183484 0.589542 0  0.348384 0.129314 0  0.255254 0.838525 0  0.504849 0.798516 0  0.320344 0.863432 0  0.611669 0.525425 0  0.265864 0.804962 0  0.72056 0.521442 0  0.613372 0.6101220000000001 0  0.481262 0.881068 0  0.655778 0.191988 0  0.701921 0.196918 0  0.5658260000000001 0.5731810000000001 0  0.46914 0.240927 0  0.343219 0.173284 0  0.888786 0.278502 0  0.244113 0.6750930000000001 0  0.739546 0.417914 0  0.784023 0.355942 0  0.326805 0.265549 0  0.248616 0.6
[...]
<PointData  Vectors="f_21"> 
<DataArray  type="Float64"  Name="f_21"  NumberOfComponents="3" format="ascii">3.8481839818248026e-01 -3.8344929901531141e-02 0.0000000000000000e+00  3.7646557572143002e-01 -3.9592623742796457e-02 0.0000000000000000e+00  3.4002576310991361e-01 -3.3800076821563829e-02 0.0000000000000000e+00  3.0140780035836140e-01 -2.6302878602283523e-02 0.0000000000000000e+00  2.6107302964574142e-01 -1.9809528499779128e-02 0.0000000000000000e+00  1.8399669409273706e-01 -1.8197495473074095e-03 0.0000000000000000e+00  1.3446642363489916e-01 4.4337993469070044e-03 0.0000000000000000e+00  7.3119103890029027e-02 4.2301531103182757e-02 0.0000000000000000e+00  4.8050471129334339e-02 6.1204846497558481e-02 0.0000000000000000e+00  3.9517664240257086e-02 6.5940725090530949e-02 0.0000000000000000e+00  2.6124801464402131e-02 6.3276046440534681e-02 0.0000000000000000e+00  1.8892594534224108e-02 5.5638541209993231e-02 0.0000000000000000e+00  1.0860014712547253e-02 3.2365809587085646e-02 0.0000000000000000e+00  3.9924852517984307e-03 -2.8278052391374608e-03 0.0000000000000000e+00  8.3401755651028929e-04 -1.0225607283588945e-02 0.0000000000000000e+00  2.9541565338878740e-04 -5.5209451497278440e-03 0.0000000000000000e+00  -3.5853172594551669e-04 1.5216668704452594e-03 0.0000000000000000e+00  -1.6511131621887078e-03 5.9816598548267661e-03 0.0000000000000000e+00  -1.4378220978391919e-03 3.6160229139068872e-03 0.0000000000000000e+00  3.6505716478310510e-03 -6.0764834684382150e-03 0.0000000000000000e+00  2.1009790570206667e-02 -2.5803574102583157e-02 0.0000000000000000e+00  4.0199513575684888e-02 -3.6021097444749087e-02 0.0000000000000000e+00  6.2189804225214154e-02 -3.2669440394193013e-02 0.0000000000000000e+00  1.3701135376850612e-01 -3.9810156953220356e-02 0.0000000000000000e+00  1.9807028065922025e-01 -5.2023508270161466e-02 0.0000000000000000e+00  2.4833154395979151e-01 -5.1877358389450123e-02 0.0000000000000000e+00  3.1837827362970067e-01 -4.7646306706467564e-02 0.0000000000000000e+00  3.4907649017846115e-01 -3.4091071212461063e-02 0.0000000000000000e+00  3.6049007458229193e-01 -2.3645046562813372e-02 0.0000000000000000e+00  3.6720234876859642e-01 -2.2744490529941028e-02 0.0000000000000000e+00  4.1074515944775697e-01 -5.7948887560223560e-02 0.0000000000000000e+00  4.7829561854611852e-01 -7.8496646114768948e-02 0.0000000000000000e+00  5.2656980268814346e-01 -8.7480532495549782e-02 0.0000000000000000e+00  5.7187656494372552e-01 -6.5736927784270344e-02 0.0000000000000000e+00  5.9902277532031223e-01 -2.1045177899654269e-02 0.0000000000000000e+00  5.9640889361461680e-01 2.5256911254616082e-02 0.0000000000000000e+00  5.7663746310966435e-01 4.4191245367702907e-02 0.0000000000000000e+00  5.2144104970209659e-01 8.9956199710047743e-02 0.0000000000000000e+00  3.7256112856217211e-01 1.6431375182460217e-01 0.0000000000000000e+00  2.9817642767918967e-01 1.6508532981144541e-01 0.0000000000000000e+00  1.9220935402916456e-01 1.2880218397201790e-01 0.0000000000000000e+00  1.4217659846464789e-01 5.9634568263585229e-02 0.0000000000000000e+00  1.3453560387325775e-01 -1.0679677278894134e-02 0.0000000000000000e+00  1.6895264162053816e-01 -8.1849031800894520e-02 0.0000000000000000e+00  2.4028240012912383e-01 -1.2554674078451894e-01 0.0000000000000000e+00  3.2947900900911725e-01 -1.0055930355855856e-01 0.0000000000000000e+00  4.2272886763684525e-01 -7.0409878288997169e-02 0.0000000000000000e+00  5.0226853352865564e-01 -8.2757441183601441e-02 0.0000000000000000e+00  5.4536381074544982e-01 -8.9859461987799830e-02 0.0000000000000000e+00  5.7365745156385939e-01 -8.5523895101736733e-02 0.0000000000000000e+00  5.9926068593318060e-01 -7.9763409276152844e-02 0.0000000000000000e+00  6.2218897953665997e-01 -7.6154442817104817e-02 0.0000000000000000e+00  6.4276476223106438e-01 -6.7706018193399137e-02 0.0000000000000000e+00  6.5377376876361104e-01 -5.4003931571461841e-02 0.0000000000000000e+00  6.6533546504723762e-01 -3.2491942888927344e-02 0.0000000000000000e+00  6.7266004859889228e-01 -1.0310993349774167e-02 0.0000000000000000e+00  6.7527403016790732e-01 6.5720988894709597e-03 0.0000000000000000e+00  6.8050962590930608e-01 1.9216819770611831e-02 0.0000000000000000e+00  6.8910626505882011e-01 2.5894851141209350e-02 0.0000000000000000e+00  6.9730952813303826e-01 3.1292899386236667e-02 0.0000000000000000e+00  7.0727910824557538e-01 3.8260490955781823e-02 0.0000000000000000e+00  7.1491438710809418e-01 4.4915641728352260e-02 0.0000000000000000e+00  7.1953376024030358e-01 5.4483935750271342e-02 0.0000000000000000e+00  7.1989634205979003e-01 6.1061179403081263e-02 0.0000000000000000e+00  7.2012309641295469e-01 6.4074543337162337e-02 0.0000000000000000e+00  7.1625230750587532e-01 7.4520007211343678e-02 0.0000000000000000e+00  7.0547790898751472e-01 8.1687188229660590e-02 0.0000000000000000e+00  6.6648992873638346e-01 8.9589168434899197e-02 0.0000000000000000e+00  6.2446469367967716e-01 9.0603585643468168e-02 0.0000000000000000e+00  5.7368671361832624e-01 7.5254615719750589e-02 0.0000000000000000e+00  5.4286145725055834e-01 6.0422743812675359e-02 0.0000000000000000e+00  5.1431699561043520e-01 4.6373907531942565e-02 0.0000000000000000e+00  4.7913055358507001e-01 3.0434570020995151e-02 0.0000000000000000e+00  4.2981224773070614e-01 4.1425136759954328e-03 0.0000000000000000e+00  3.9957886536335635e-01 -1.8240139422721891e-02 0.0000000000000000e+00  3.8956174810714783e-01 -3.0284325121422068e-02 0.0000000000000000e+00  3.8547324021140311e-01 -3.7427100496058407e-02 0.0000000000000000e+00  8.1192926450565783e-01 -2.1323685699147174e-01 0.0000000000000000e+00  8.1385100247994235e-01 1.6988953932074227e-01 0.0000000000000000e+00  0.0000000000000000e+00 0.0000000000000000e+00 0.0000000000000000e+00  0.0000000000000000e+00 0.0000000000000000e+00 0.0000000000000000e+00  3.8455573458227571e-01 -3.8669573865692260e-02 0.0000000000000000e+00  3.8380621630347961e-01 -3.8999023695280452e-02 0.0000000000000000e+00  3.8242343887965735e-01 -3.9348767813654206e-02 0.0000000000000000e+00  3.8017542634805357e-01 -3.9568146557032557e-02 0.0000000000000000e+00  3.7233182755135585e-01 -3.9319053947897677e-02 0.0000000000000000e+00  3.6598302024217833e-01 -3.8630824612870276e-02 0.0000000000000000e+00  3.5628247761870907e-01 -3.6859353166641878e-02 0.0000000000000000e+00  3.2383650626878790e-01 -3.0472030877177488e-02 0.0000000000000000e+00  2.3414895618102108e-01 -1.4021873919574188e-02 0.0000000000000000e+00  2.1026943135309945e-01 -8.2072247080781525e-03 0.0000000000000000e+00  1.0748974510530833e-01 2.3123800961472252e-02 0.0000000000000000e+00  8.8726527760754376e-02 3.3196635902650436e-02 0.0000000000000000e+00  6.1399530049756866e-02 4.9836663169350516e-02 0.0000000000000000e+00  5.3680607908612205e-02 5.6086453439179923e-02 0.0000000000000000e+00  3.3388864208369541e-02 6.4725631158887589e-02 0.0000000000000000e+00  1.6565811376090513e-02 4.9826777942529432e-02 0.0000000000000000e+00  1.3797676236684459e-02 4.2232291174689997e-02 0.0000000000000000e+00  7.6697441805115441e-03 2.1697348129566838e-02 0.0000000000000000e+00  5.3362735607835853e-03 9.5552289433132303e-03 0.0000000000000000e+00  2.0352509063515959e-03 -8.4277939765489904e-03 0.0000000000000000e+00  -9.7626913969512384e-04 4.7026895883930612e-03 0.0000000000000000e+00  1.1612915688506073e-02 -1.6367190060199033e-02 0.0000000000000000e+00  8.4320371504580049e-02 -3.7900519113053796e-02 0.0000000000000000e+00  1.0836629981315071e-01 -4.1270400723452956e-02 0.0000000000000000e+00  2.8955122420539814e-01 -5.3152531722164859e-02 0.0000000000000000e+00  3.3433648719391662e-01 -4.1087921450406503e-02 0.0000000000000000e+00  3.8052887602813762e-01 -3.3014360163151880e-02 0.0000000000000000e+00  5.4889727900952090e-01 -8.0759596782318657e-02 0.0000000000000000e+00  5.9919200192990940e-01 5.2094514562055771e-03 0.0000000000000000e+00  5.5615608732479338e-01 6.0246670521548903e-02 0.0000000000000000e+00  4.7068859140339009e-01 1.2131138176288404e-01 0.0000000000000000e+00  4.1809455602053780e-01 1.4705927074377961e-01 0.0000000000000000e+00  2.5236550660826362e-01 1.5026925628695950e-01 0.0000000000000000e+00  2.7862214200832958e-01 -1.1549151723529714e-01 0.0000000000000000e+00  5.2293320490939954e-01 -8.8570359854910671e-02 0.0000000000000000e+00  6.3399065268725940e-01 -7.1426592093508545e-02 0.0000000000000000e+00  6.6968432406254885e-01 -1.9623665946137715e-02 0.0000000000000000e+00  6.7798556392776699e-01 1.4406511192715483e-02 0.0000000000000000e+00  7.0199810759492665e-01 3.3990530346944832e-02 0.0000000000000000e+00  7.1826751411436607e-01 5.0360032609998696e-02 0.0000000000000000e+00  7.1988834905573440e-01 5.8739285143322252e-02 0.0000000000000000e+00  7.1901609086957508e-01 6.8375275462170274e-02 0.0000000000000000e+00  6.9195291343752230e-01 8.8631182316345022e-02 0.0000000000000000e+00  5.9919610619461516e-01 8.3253242230716534e-02 0.0000000000000000e+00  4.5221788477000235e-01 1.6532885135592500e-02 0.0000000000000000e+00  4.1031266976813785e-01 -8.7267116878826569e-03 0.0000000000000000e+00  3.9302786411216495e-01 -2.5528664897960098e-02 0.0000000000000000e+00  3.8837017189117601e-01 -3.3325960805960418e-02 0.0000000000000000e+00  3.8714596866554657e-01 -3.5236134745027500e-02 0.0000000000000000e+00  3.8619263239852880e-01 -3.6540420730556487e-02 0.0000000000000000e+00  7.9976394669711215e-01 -1.7149142574581383e-01 0.0000000000000000e+00  7.9196692232197774e-01 -1.1317060954141493e-01 0.0000000000000000e+00  8.0438826138886665e-01 -4.1594136995068857e-02 0.0000000000000000e+00  8.4685945143580477e-01 1.2759355945304548e-02 0.0000000000000000e+00  8.8744737788689654e-01 4.1195767965843982e-02 0.0000000000000000e+00  8.9660322410098781e-01 5.2582661368600757e-02 0.0000000000000000e+00  8.6957200826853209e-01 6.8037794323965076e-02 0.0000000000000000e+00  8.3386208579494003e-01 9.9761730366852375e-02 0.0000000000000000e+00  8.1685718066263480e-01 1.3718469364313970e-01 0.0000000000000000e+00  7.2418872529033251e-01 1.7467649422389167e-01 0.0000000000000000e+00  6.4502187384983711e-01 1.6885970811880091e-01 0.0000000000000000e+00  5.6189651159829135e-01 1.3983652399032276e-01 0.0000000000000000e+00  4.6313148469122095e-01 1.0446888319515601e-01 0.0000000000000000e+00  3.5595003951905280e-01 8.1947507959959989e-02 0.0000000000000000e+00  2.5840750062744278e-01 7.0567138696852313e-02 0.0000000000000000e+00  1.7069468217692507e-01 5.0931225779886909e-02 0.0000000000000000e+00  9.3792818973802816e-02 2.7983638361411985e-02 0.0000000000000000e+00  3.6786058052717049e-02 1.1740393587059687e-02 0.0000000000000000e+00  3.7842202552552551e-02 -1.1536724035420836e-02 0.0000000000000000e+00  9.7820109747537243e-02 -2.7844077791751385e-02 0.0000000000000000e+00  1.8236273563293784e-01 -5.5934121118579011e-02 0.0000000000000000e+00  2.7168725856458931e-01 -8.4306717639217155e-02 0.0000000000000000e+00  3.6148560651805883e-01 -1.0477250689371750e-01 0.0000000000000000e+00  4.5235675422567528e-01 -1.2905753053725078e-01 0.0000000000000000e+00  5.4025267865849069e-01 -1.5303403758261985e-01 0.0000000000000000e+00  6.2905557686627389e-01 -1.7514583899630118e-01 0.0000000000000000e+00  7.1962120464652024e-01 -1.9634975564323950e-01 0.0000000000000000e+00  0.0000000000000000e+00 0.0000000000000000e+00 0.0000000000000000e+00  0.0000000000000000e+00 0.0000000000000000e+00 0.0000000000000000e+00  0.0000000000000000e+00 0.0000000000000000e+00 0.0000000000000000e+00  0.0000000000000000e+00 0.0000000000000000e+00 0.0000000000000000e+00  0.0000000000000000e+00 0.0000000000000000e+00 0.0000000000000000e+00  0.0000000000000000e+00 0.0000000000000000e+00 0.0000000000000000e+00  0.0000000000000000e+00 0.0000000000000000e+00 0.0000000000000000e+00  0.0000000000000000e+00 0.0000000000000000e+00 0.0000000000000000e+00  0.0000000000000000e+00 0.0000000000000000e+00 0.0000000000000000e+00  6.5887980023228387e-01 -4.4482110406039568e-02 0.0000000000000000e+00  5.8165246465646558e-01 -4.9087606453832616e-02 0.0000000000000000e+00  3.1007420013912292e-02 1.6122094496546353e-02 0.0000000000000000e+00  4.1658676802711618e-02 -1.5526783959073693e-02 0.0000000000000000e+00  5.8197860308879934e-01 1.1248945076689502e-01 0.0000000000000000e+00  4.0806753365558324e-01 3.4151014649209048e-02 0.0000000000000000e+00  7.6436491027381104e-01 3.1825992188315569e-02 0.0000000000000000e+00  3.2555370105139669e-01 -5.5290161493934904e-02 0.0000000000000000e+00  2.5761391548325459e-03 2.4583973220584417e-03 0.0000000000000000e+00  1.5456402121050741e-01 1.1290527344970510e-02 0.0000000000000000e+00  2.0288274173545504e-01 -4.2723811584068148e-02 0.0000000000000000e+00  1.5669682714392542e-02 1.7360407718268740e-03 0.0000000000000000e+00  1.9861313718339903e-02 -2.0885817645944454e-03 0.0000000000000000e+00  7.4271709581944956e-01 -1.8157768642165401e-01 0.0000000000000000e+00  7.5526584296308352e-01 1.5708290806590386e-01 0.0000000000000000e+00  3.9095126644161211e-02 4.7649587502425457e-03 0.0000000000000000e+00  5.4107195395710828e-01 -8.9953560176889213e-02 0.0000000000000000e+00  5.4527473875717392e-01 -4.0847301419211592e-02 0.0000000000000000e+00  3.3408935920058624e-01 3.6597284274629979e-02 0.0000000000000000e+00  6.2443340546127313e-01 -4.5492241959745265e-02 0.0000000000000000e+00  3.4391954936770809e-02 4.7467642366860380e-02 0.0000000000000000e+00  3.8556251360478377e-01 -3.7549120547474869e-02 0.0000000000000000e+00  7.2861706167312744e-03 -7.3074130673167629e-03 0.0000000000000000e+00  6.3914751479030485e-01 -1.2445766754517003e-01 0.0000000000000000e+00  4.5759096099515895e-01 -8.2677786956473945e-02 0.0000000000000000e+00  7.0159866261018866e-01 -2.5857880161604473e-02 0.0000000000000000e+00  5.8531358028219316e-01 3.2236889376774163e-03 0.0000000000000000e+00  7.1727622430673366e-01 1.0745238736396613e-01 0.0000000000000000e+00  5.5908394949324418e-02 -4.7250958647745403e-04 0.0000000000000000e+00  8.6637014403705970e-02 -2.2441814911819898e-04 0.0000000000000000e+00  3.0425052500723343e-01 3.7228851043983942e-02 0.0000000000000000e+00  6.7720410982607759e-01 1.4677943879949373e-01 0.0000000000000000e+00  9.4805324734874366e-03 1.3774742133310857e-02 0.0000000000000000e+00  4.9864433989316798e-01 8.5163108008747407e-02 0.0000000000000000e+00  5.2713977793324707e-01 7.4000913840110316e-02 0.0000000000000000e+00  6.0943331829413493e-02 -2.3939973477782119e-02 0.0000000000000000e+00  6.8948312089317440e-02 1.9149754147381595e-02 0.0000000000000000e+00  1.0044026769871475e-02 4.3975076950825680e-03 0.0000000000000000e+00  1.3488813719755929e-02 -4.1136290813841197e-03 0.0000000000000000e+00  2.8234128289190275e-01 -6.5914372166437196e-02 0.0000000000000000e+00  8.3853213708998120e-01 4.1917131413658812e-02 0.0000000000000000e+00  4.2098094322336127e-01 5.1922715816489964e-03 0.0000000000000000e+00  7.4945261649845907e-01 5.8389459841429341e-02 0.0000000000000000e+00  6.9170427279917668e-01 2.7508067537774638e-02 0.0000000000000000e+00  3.1697541986535832e-01 -3.7322836916250053e-02 0.0000000000000000e+00  1.4052659674569541e-03 3.8000182947432178e-04 0.0000000000000000e+00  1.7340476969720370e-01 5.9459768972503213e-03 0.0000000000000000e+00  2.2939251209062891e-01 -6.3243068644189465e-02 0.0000000000000000e+00  1.6606857044352288e-02 -2.6642564028137817e-03 0.0000000000000000e+00  6.1286473386828022e-01 -5.7439174752224244e-02 0.0000000000000000e+00  4.0470227029377609e-02 2.7728914763179055e-02 0.0000000000000000e+00  5.5273114484784713e-01 -7.0080139580228448e-02 0.0000000000000000e+00  5.1951292681863859e-01 -6.2405157541612091e-02 0.0000000000000000e+00  4.7318424205290416e-01 3.9552296321449291e-02 0.0000000000000000e+00  5.4005648466991529e-01 -8.4515144066669490e-02 0.0000000000000000e+00  2.4881578380330410e-01 -1.7137117103630229e-03 0.0000000000000000e+00  6.4463579027847129e-01 -4.0377156859992179e-02 0.0000000000000000e+00  5.6532936612381357e-01 -5.4223265876041475e-02 0.0000000000000000e+00  6.3361428724469249e-01 -5.8656128997619086e-02 0.0000000000000000e+00  5.6182450978544385e-01 1.6770874956937593e-02 0.0000000000000000e+00  2.9610596841205783e-01 1.0796472761068719e-01 0.0000000000000000e+00  3.6552316851616856e-01 -3.5651829540647072e-02 0.0000000000000000e+00  2.4659383894486981e-02 4.1867586260161162e-02 0.0000000000000000e+00  3.9387993229488459e-02 5.6356463229392112e-02 0.0000000000000000e+00  2.7618922252224468e-02 5.4155661981737137e-02 0.0000000000000000e+00  3.8273191935368112e-01 -3.8411343436035243e-02 0.0000000000000000e+00  3.8659443649628528e-01 -3.6604447088956486e-02 0.0000000000000000e+00  3.8491960139081044e-01 -3.8252209697161373e-02 0.0000000000000000e+00  4.7274693529010303e-01 -3.1381277088757209e-02 0.0000000000000000e+00  6.8755848031721967e-01 -7.3655903128501538e-02 0.0000000000000000e+00  6.4578875449533514e-03 4.7561268977801855e-03 0.0000000000000000e+00  8.0857222182951305e-01 6.6331010259521969e-02 0.0000000000000000e+00  2.5232775379727210e-02 2.0308455115004833e-03 0.0000000000000000e+00  5.7622868332678168e-01 -1.3513411428276231e-01 0.0000000000000000e+00  7.8591671088193060e-01 9.1048798695435515e-03 0.0000000000000000e+00  6.4553723307446809e-01 9.8747797605681768e-04 0.0000000000000000e+00  1.0162056578572866e-01 1.7303259215388250e-02 0.0000000000000000e+00  2.0953479229738987e-03 -1.7948782442086288e-03 0.0000000000000000e+00  9.4064903228851721e-02 -9.9296776445225790e-03 0.0000000000000000e+00  8.5171144930247123e-03 -5.1273394009031205e-03 0.0000000000000000e+00  7.3182973017488862e-01 1.2795474948863719e-01 0.0000000000000000e+00  4.1349164445695541e-01 -9.3865707569881149e-02 0.0000000000000000e+00  1.9750993781904706e-02 -1.3761500813859297e-03 0.0000000000000000e+00  3.2047443605885023e-01 -1.6925262676673171e-03 0.0000000000000000e+00  7.1959843656334377e-01 -1.4747594433309227e-01 0.0000000000000000e+00  3.6789557251333760e-01 5.8640422511267221e-02 0.0000000000000000e+00  1.4195003300503495e-01 -8.3140827229261881e-03 0.0000000000000000e+00  6.3865026799512215e-01 1.0461192019736476e-01 0.0000000000000000e+00  5.9059807910089990e-01 1.3815586733767457e-01 0.0000000000000000e+00  2.1230849656798753e-01 4.3146265899027293e-02 0.0000000000000000e+00  2.3925133425264093e-03 -4.4322960450059430e-03 0.0000000000000000e+00  6.6905655690655252e-01 -1.6319119133477936e-01 0.0000000000000000e+00  5.7538219902746968e-01 -1.9247223941450144e-02 0.0000000000000000e+00  1.1466962547483505e-02 -1.7587036674715124e-02 0.0000000000000000e+00  1.5203358221569371e-01 -3.2256546968148031e-02 0.0000000000000000e+00  2.5668750830375747e-01 -5.0656804130821000e-02 0.0000000000000000e+00  6.3478322200623338e-01 1.3942812546309186e-02 0.0000000000000000e+00  3.4927510591659099e-02 3.3469408441099248e-03 0.0000000000000000e+00  1.2800234602249608e-02 1.3169134068220737e-02 0.0000000000000000e+00  7.2446907104880442e-01 5.0942985906055858e-02 0.0000000000000000e+00  4.6852085201646076e-01 4.4687782673749302e-02 0.0000000000000000e+00  1.8021292462321557e-03 7.7995857744566710e-03 0.0000000000000000e+00  2.6523125908368406e-02 1.9706992180289890e-02 0.0000000000000000e+00  5.3324608446567690e-01 9.1295319288457716e-02 0.0000000000000000e+00  4.7665532005530409e-01 3.4267377706584549e-02 0.0000000000000000e+00  5.4489015946871733e-01 7.4916534873720478e-02 0.0000000000000000e+00  3.0506229060376605e-01 -8.1700706233152467e-02 0.0000000000000000e+00  7.1255676063498219e-01 7.2906477390479590e-02 0.0000000000000000e+00  2.3514494465191157e-01 -5.7396435532264450e-02 0.0000000000000000e+00  7.3778343708474969e-02 -1.9257443468725207e-02 0.0000000000000000e+00  6.8250740977535224e-02 8.4289128571209664e-03 0.0000000000000000e+00  4.0950786000217754e-01 -1.4674656447037877e-02 0.0000000000000000e+00  3.3333940193435396e-01 -2.6462760386673129e-02 0.0000000000000000e+00  2.1715947588730114e-01 5.2419331870947354e-03 0.0000000000000000e+00  6.4892404139376336e-01 -1.9270604177751081e-02 0.0000000000000000e+00  2.242924