<?xml version="1.0"?>
<VTKFile type="UnstructuredGrid"  version="0.1"  >
<UnstructuredGrid>
<Piece  NumberOfPoints="2868" NumberOfCells="5400">
<Points>
<DataArray  type="Float64"  NumberOfComponents="3"  format="ascii">0.534923 0.326073 0  0.510642 0.314196 0  0.466125 0.293082 0  0.436448 0.281205 0  0.409468 0.275927 0  0.368998 0.270648 0  0.35281 0.275927 0  0.381139 0.302319 0  0.405421 0.326073 0  0.410817 0.33531 0  0.408119 0.349826 0  0.400025 0.357744 0  0.375743 0.368301 0  0.329878 0.392055 0  0.297502 0.432963 0  0.282663 0.476511 0  0.285361 0.524018 0  0.298851 0.572845 0  0.317737 0.6045160000000001 0  0.337972 0.6361869999999999 0  0.360904 0.674457 0  0.368998 0.69953 0  0.359555 0.7219640000000001 0  0.360904 0.757594 0  0.370347 0.766831 0  0.381139 0.762872 0  0.390582 0.741758 0  0.404072 0.720644 0  0.424307 0.707448 0  0.447239 0.702169 0  0.480964 0.704808 0  0.479615 0.6889729999999999 0  0.468823 0.675776 0  0.447239 0.6691780000000001 0  0.428354 0.6691780000000001 0  0.410817 0.6639 0  0.404072 0.653343 0  0.395978 0.628269 0  0.387884 0.59132 0  0.389233 0.576804 0  0.397327 0.557009 0  0.410817 0.547772 0  0.424307 0.546452 0  0.437797 0.55305 0  0.44589 0.5662469999999999 0  0.441843 0.582082 0  0.439145 0.5979179999999999 0  0.449937 0.609795 0  0.468823 0.603196 0  0.479615 0.59 0  0.489058 0.570205 0  0.494454 0.546452 0  0.505246 0.522699 0  0.522783 0.509502 0  0.55246 0.494986 0  0.586185 0.484429 0  0.615863 0.48047 0  0.64554 0.473872 0  0.6671240000000001 0.461995 0  0.683312 0.451438 0  0.696802 0.435603 0  0.703547 0.417128 0  0.7116400000000001 0.393374 0  0.7183850000000001 0.37226 0  0.7251300000000001 0.364342 0  0.739969 0.353785 0  0.7453650000000001 0.344548 0  0.7453650000000001 0.327393 0  0.737271 0.318155 0  0.7183850000000001 0.316835 0  0.7008490000000001 0.319475 0  0.677916 0.318155 0  0.650936 0.316835 0  0.610467 0.318155 0  0.57944 0.324753 0  0.559205 0.328712 0  0.5389699999999999 0.326073 0  1 1 0  1 0 0  0 0 0  0 1 0  0.532238 0.32476 0  0.528748 0.323052 0  0.52421 0.320833 0  0.518311 0.317947 0  0.503447 0.310783 0  0.494093 0.306347 0  0.481933 0.30058 0  0.452151 0.28749 0  0.392327 0.273691 0  0.379141 0.271971 0  0.360474 0.283066 0  0.369797 0.291752 0  0.391424 0.31238 0  0.399335 0.32012 0  0.40958 0.341964 0  0.393939 0.36039 0  0.386028 0.36383 0  0.364248 0.374254 0  0.349304 0.381994 0  0.315801 0.409841 0  0.292986 0.551616 0  0.350934 0.657818 0  0.360127 0.737055 0  0.360566 0.748664 0  0.385245 0.753692 0  0.396447 0.732578 0  0.466301 0.703661 0  0.459439 0.672908 0  0.418442 0.666195 0  0.400553 0.642441 0  0.39255 0.612619 0  0.389913 0.60058 0  0.392752 0.568197 0  0.444131 0.573132 0  0.458149 0.606926 0  0.5005540000000001 0.533026 0  0.571522 0.489019 0  0.632637 0.476741 0  0.689177 0.444553 0  0.708121 0.403702 0  0.715453 0.38144 0  0.732406 0.359166 0  0.7453650000000001 0.337089 0  0.72906 0.317581 0  0.629879 0.317522 0  0.59293 0.321884 0  0.568003 0.326991 0  0.55202 0.327775 0  0.546493 0.327054 0  0.542241 0.326499 0  1 0.9 0  1 0.8 0  1 0.7 0  1 0.6 0  1 0.5 0  1 0.4 0  1 0.3 0  1 0.2 0  1 0.1 0  0.9 0 0  0.8 0 0  0.7 0 0  0.6 0 0  0.5 0 0  0.4 0 0  0.3 0 0  0.2 0 0  0.1 0 0  0.1 1 0  0.2 1 0  0.3 1 0  0.4 1 0  0.5 1 0  0.6 1 0  0.7 1 0  0.8 1 0  0.9 1 0  0 0.1 0  0 0.2 0  0 0.3 0  0 0.4 0  0 0.5 0  0 0.6 0  0 0.7 0  0 0.8 0  0 0.9 0  0.535686 0.5031910000000001 0  0.753987 0.733359 0  0.167145 0.741436 0  0.173378 0.257204 0  0.733497 0.159862 0  0.554096 0.15788 0  0.849187 0.479053 0  0.488793 0.838452 0  0.138507 0.5592 0  0.30686 0.154944 0  0.348904 0.890523 0  0.058006 0.065099 0  0.06984899999999999 0.937917 0  0.93633 0.939704 0  0.934625 0.053613 0  0.343397 0.333452 0  0.473272 0.639943 0  0.433266 0.638072 0  0.415174 0.58269 0  0.533435 0.545042 0  0.390848 0.340652 0  0.53655 0.320242 0  0.127966 0.393775 0  0.83861 0.850455 0  0.635242 0.8551299999999999 0  0.852158 0.633441 0  0.653427 0.626848 0  0.861226 0.24292 0  0.166128 0.12976 0  0.216875 0.8698709999999999 0  0.458305 0.11179 0  0.84446 0.101633 0  0.202024 0.642528 0  0.644825 0.115855 0  0.671342 0.218358 0  0.251354 0.286186 0  0.262388 0.75153 0  0.063044 0.751571 0  0.068189 0.242962 0  0.435781 0.9053949999999999 0  0.934144 0.451133 0  0.568393 0.237622 0  0.814984 0.395506 0  0.752951 0.517227 0  0.456254 0.780699 0  0.073352 0.531116 0  0.337731 0.206071 0  0.363213 0.960371 0  0.330742 0.363592 0  0.516613 0.55705 0  0.369057 0.332992 0  0.500926 0.617309 0  0.498004 0.665534 0  0.412142 0.61178 0  0.454233 0.6366039999999999 0  0.422782 0.567496 0  0.541193 0.5214800000000001 0  0.439761 0.65557 0  0.5163 0.533672 0  0.414775 0.64562 0  0.40073 0.576135 0  0.430362 0.5880339999999999 0  0.385432 0.351492 0  0.400298 0.335397 0  0.398325 0.348194 0  0.528702 0.314885 0  0.540814 0.322334 0  0.534477 0.322953 0  0.619095 0.743583 0  0.885162 0.737972 0  0.08076 0.668849 0  0.90734 0.36634 0  0.09468699999999999 0.868937 0  0.759838 0.912152 0  0.901518 0.540898 0  0.747285 0.607479 0  0.229182 0.071641 0  0.06915399999999999 0.450091 0  0.244775 0.203309 0  0.076534 0.331755 0  0.897847 0.167826 0  0.578909 0.911415 0  0.07713299999999999 0.146341 0  0.477215 0.203448 0  0.922631 0.869341 0  0.517415 0.074785 0  0.297026 0.827793 0  0.7832710000000001 0.246505 0  0.74519 0.061079 0  0.36033 0.069068 0  0.210313 0.475228 0  0.859426 0.928758 0  0.5745479999999999 0.609182 0  0.243069 0.383398 0  0.283099 0.934598 0  0.417416 0.843141 0  0.643942 0.553164 0  0.112687 0.079336 0  0.281357 0.658386 0  0.765043 0.436177 0  0.611361 0.198486 0  0.234496 0.58911 0  0.206479 0.702638 0  0.679608 0.155818 0  0.62682 0.259978 0  0.690538 0.264164 0  0.448938 0.956308 0  0.808154 0.328403 0  0.379583 0.91913 0  0.308083 0.297769 0  0.312358 0.730249 0  0.563101 0.278576 0  0.435597 0.746198 0  0.385475 0.225229 0  0.572248 0.518034 0  0.357864 0.35422 0  0.497647 0.641694 0  0.458101 0.655768 0  0.360474 0.310727 0  0.467038 0.620139 0  0.47798 0.659909 0  0.41102 0.628072 0  0.48324 0.609015 0  0.427544 0.617941 0  0.388633 0.328253 0  0.405336 0.599404 0  0.408351 0.565178 0  0.42395 0.600985 0  0.431562 0.576523 0  0.424905 0.6551979999999999 0  0.398064 0.58782 0  0.427739 0.557934 0  0.5192909999999999 0.303443 0  0.53142 0.320293 0  0.5449000000000001 0.323642 0  0.537166 0.323513 0  0.153974 0.920841 0  0.9181859999999999 0.67343 0  0.759946 0.820588 0  0.5375259999999999 0.783091 0  0.816532 0.545843 0  0.813991 0.178083 0  0.836774 0.702023 0  0.149815 0.318856 0  0.662287 0.923338 0  0.680146 0.791192 0  0.708961 0.663172 0  0.9372779999999999 0.287318 0  0.574622 0.6881660000000001 0  0.5894740000000001 0.076262 0  0.502822 0.926683 0  0.222269 0.811068 0  0.380457 0.164786 0  0.15321 0.684154 0  0.458063 0.051413 0  0.161702 0.056026 0  0.199351 0.198818 0  0.298946 0.09553200000000001 0  0.902465 0.795949 0  0.121139 0.791477 0  0.906269 0.112287 0  0.056109 0.822332 0  0.512172 0.13237 0  0.940964 0.741805 0  0.888887 0.408777 0  0.354543 0.825964 0  0.808736 0.068638 0  0.068507 0.394071 0  0.719105 0.563843 0  0.247287 0.149664 0  0.293062 0.237128 0  0.240524 0.434997 0  0.141255 0.623289 0  0.945202 0.160621 0  0.502914 0.247629 0  0.144669 0.480811 0  0.665025 0.060817 0  0.728047 0.224344 0  0.861995 0.313312 0  0.200068 0.534235 0  0.253262 0.965623 0  0.893804 0.49307 0  0.604391 0.572456 0  0.947088 0.345347 0  0.439372 0.227307 0  0.629847 0.159823 0  0.273405 0.880181 0  0.302744 0.776823 0  0.781502 0.295365 0  0.275342 0.349602 0  0.7283849999999999 0.472798 0  0.229136 0.246478 0  0.807794 0.480346 0  0.709476 0.112786 0  0.275506 0.694991 0  0.771674 0.394419 0  0.449715 0.861802 0  0.419159 0.799696 0  0.674851 0.503139 0  0.280443 0.61016 0  0.572443 0.192538 0  0.393113 0.87525 0  0.405555 0.948428 0  0.330942 0.934103 0  0.540509 0.597101 0  0.312763 0.6689310000000001 0  0.254368 0.540179 0  0.595265 0.25915 0  0.606679 0.234099 0  0.657131 0.279138 0  0.722458 0.279478 0  0.333 0.308056 0  0.351529 0.246142 0  0.455714 0.7257940000000001 0  0.585239 0.295143 0  0.340062 0.72492 0  0.545593 0.293773 0  0.555449 0.545426 0  0.414311 0.737314 0  0.590854 0.502323 0  0.350507 0.368444 0  0.484423 0.625665 0  0.483899 0.674542 0  0.378137 0.317274 0  0.446416 0.646404 0  0.373532 0.347654 0  0.446876 0.619769 0  0.466106 0.666068 0  0.437545 0.609254 0  0.434988 0.565726 0  0.41462 0.656829 0  0.418803 0.556961 0  0.398425 0.327446 0  0.517803 0.310421 0  0.549516 0.322918 0  0.57701 0.842889 0  0.8291269999999999 0.773906 0  0.643235 0.684732 0  0.134281 0.207734 0  0.865997 0.055966 0  0.680959 0.723345 0  0.165229 0.8415550000000001 0  0.54558 0.959672 0  0.783726 0.656439 0  0.913315 0.595533 0  0.699439 0.860667 0  0.785839 0.125076 0  0.551673 0.037713 0  0.9200970000000001 0.223214 0  0.206406 0.299726 0  0.087064 0.596401 0  0.935644 0.394252 0  0.964557 0.252582 0  0.230124 0.928346 0  0.120579 0.271764 0  0.8572149999999999 0.524082 0  0.7670979999999999 0.5551469999999999 0  0.936094 0.507131 0  0.804064 0.59585 0  0.700565 0.608273 0  0.429773 0.174231 0  0.117746 0.727333 0  0.5389620000000001 0.730231 0  0.862761 0.359173 0  0.821444 0.284046 0  0.193552 0.35818 0  0.234923 0.505555 0  0.193209 0.421217 0  0.220144 0.755896 0  0.594015 0.131642 0  0.283813 0.195855 0  0.517519 0.213961 0  0.553509 0.639116 0  0.280391 0.378018 0  0.852183 0.436817 0  0.746983 0.197173 0  0.821806 0.221318 0  0.449853 0.828453 0  0.883758 0.453926 0  0.183484 0.589542 0  0.348384 0.129314 0  0.255254 0.838525 0  0.504849 0.798516 0  0.320344 0.863432 0  0.611669 0.525425 0  0.265864 0.804962 0  0.72056 0.521442 0  0.613372 0.6101220000000001 0  0.481262 0.881068 0  0.655778 0.191988 0  0.701921 0.196918 0  0.5658260000000001 0.5731810000000001 0  0.46914 0.240927 0  0.343219 0.173284 0  0.888786 0.278502 0  0.244113 0.6750930000000001 0  0.739546 0.417914 0  0.784023 0.355942 0  0.326805 0.265549 0  0.248616 0.6
[...]
<PointData  Vectors="f_21"> 
<DataArray  type="Float64"  Name="f_21"  NumberOfComponents="3" format="ascii">5.9157963424744998e-07 -1.5530116780655051e-07 0.0000000000000000e+00  2.3565093265730976e-07 -2.8923141021935499e-08 0.0000000000000000e+00  3.3070338226569223e-08 -1.9183307353307469e-09 0.0000000000000000e+00  8.5234781829475789e-09 -6.8708601527912939e-10 0.0000000000000000e+00  2.2160157720605035e-09 -2.3173031495326928e-10 0.0000000000000000e+00  2.6044908171598613e-10 -3.8699483296997756e-11 0.0000000000000000e+00  5.8098560849331845e-11 -1.3762214421091626e-11 0.0000000000000000e+00  1.4849572282427758e-12 1.6579229944693652e-12 0.0000000000000000e+00  1.6032574459712375e-13 2.1648214440452224e-13 0.0000000000000000e+00  9.9153369385396018e-14 1.9176781369882727e-13 0.0000000000000000e+00  2.1213854324072882e-14 1.5656133945222950e-13 0.0000000000000000e+00  -1.3018447941577964e-14 1.1743827324323364e-13 0.0000000000000000e+00  -5.2068164933687994e-14 2.1614109319768091e-14 0.0000000000000000e+00  -7.0229044936379857e-15 -3.5369189807939941e-14 0.0000000000000000e+00  6.7410857746377352e-16 -3.8668611316997583e-15 0.0000000000000000e+00  1.2313811147045887e-17 -2.5716019768221039e-16 0.0000000000000000e+00  -4.3377167242355389e-18 -7.4279575090160061e-18 0.0000000000000000e+00  1.7665783510462081e-17 8.8458848020803921e-17 0.0000000000000000e+00  7.3718032837248270e-17 6.3872052914162631e-16 0.0000000000000000e+00  1.0133973369174621e-16 3.6458155744748724e-15 0.0000000000000000e+00  -7.0766088490243351e-15 2.1251918074064285e-14 0.0000000000000000e+00  -2.0860190110595903e-14 3.2220287380262920e-14 0.0000000000000000e+00  1.9857664169923524e-14 7.2405364428408805e-14 0.0000000000000000e+00  6.6038902646779260e-12 5.3915278047482258e-13 0.0000000000000000e+00  3.7618029783759642e-11 -5.7379674900875536e-12 0.0000000000000000e+00  9.2956869543775885e-11 -1.3730847821524104e-11 0.0000000000000000e+00  2.3327054022140279e-10 -3.9466011371092544e-11 0.0000000000000000e+00  4.8703848749198549e-10 -3.9666125116233606e-11 0.0000000000000000e+00  1.1252271412226821e-09 1.2386152269910440e-10 0.0000000000000000e+00  2.3830366081348377e-09 5.8093070858931009e-10 0.0000000000000000e+00  1.3893787902381321e-08 -1.7342926501871590e-09 0.0000000000000000e+00  2.0292203395458480e-08 -3.6600725352879465e-09 0.0000000000000000e+00  1.2580734194622543e-08 -2.6231228410152362e-09 0.0000000000000000e+00  4.7695647392803291e-09 -1.2741636363345604e-09 0.0000000000000000e+00  2.2915111332386846e-09 -6.0262720694207695e-10 0.0000000000000000e+00  1.5001360381711623e-09 -8.2392048085657505e-11 0.0000000000000000e+00  1.1196136133910604e-09 3.0586597659090547e-11 0.0000000000000000e+00  6.8992103660070956e-10 1.3138825246074746e-10 0.0000000000000000e+00  1.8346302232959105e-10 1.7529496192301449e-10 0.0000000000000000e+00  8.1363421997848079e-11 1.3262304364239000e-10 0.0000000000000000e+00  1.0267084108875574e-11 7.9436391972844511e-11 0.0000000000000000e+00  -9.2294142852412945e-12 4.6350585197818236e-11 0.0000000000000000e+00  -1.2329788631746959e-11 2.7226710714834835e-11 0.0000000000000000e+00  -1.0628646555583741e-11 9.3046641346685018e-12 0.0000000000000000e+00  9.2326701191266325e-12 -2.0812239893652282e-11 0.0000000000000000e+00  9.7530643738250038e-11 -4.3888615271221251e-11 0.0000000000000000e+00  7.7304715595618261e-10 5.1855942921103675e-11 0.0000000000000000e+00  5.8346643915582640e-09 -4.4990576560801539e-10 0.0000000000000000e+00  2.1413117275704359e-08 -3.1900754167069457e-09 0.0000000000000000e+00  4.3899944579165539e-08 -7.1238317989054382e-09 0.0000000000000000e+00  8.1904306379472999e-08 -1.5472488299515583e-08 0.0000000000000000e+00  1.2844840856548553e-07 -3.0131878316041097e-08 0.0000000000000000e+00  2.5874079981711192e-07 -4.7681770654725230e-08 0.0000000000000000e+00  4.8685103460775407e-07 -2.4190453079837930e-08 0.0000000000000000e+00  1.5633318647445978e-06 1.0659495278990809e-07 0.0000000000000000e+00  5.8325809418239005e-06 7.1416422236993275e-07 0.0000000000000000e+00  2.0357091504450320e-05 2.8471687266295232e-06 0.0000000000000000e+00  6.6258834494947063e-05 1.8724703510095062e-06 0.0000000000000000e+00  1.6763664752827737e-04 3.6052484517057266e-06 0.0000000000000000e+00  3.0710990966063438e-04 7.8315466708315382e-07 0.0000000000000000e+00  5.0502340269542383e-04 -1.3330193258961945e-05 0.0000000000000000e+00  7.0722374718808917e-04 -3.9396020124023657e-05 0.0000000000000000e+00  9.7188412540023133e-04 -7.2752556379454604e-05 0.0000000000000000e+00  1.3260023477215245e-03 -1.1352208238568385e-04 0.0000000000000000e+00  1.5508766842315953e-03 -5.6419651022265085e-05 0.0000000000000000e+00  2.0826987275307696e-03 3.4552892145934159e-05 0.0000000000000000e+00  2.4696246988915971e-03 1.7267237040761513e-05 0.0000000000000000e+00  2.2888396419005236e-03 -5.0109051960208865e-05 0.0000000000000000e+00  1.5419439168723654e-03 -7.8922472828284122e-05 0.0000000000000000e+00  6.9627495414786476e-04 -1.3912183890544977e-04 0.0000000000000000e+00  3.6840583764114523e-04 -1.1302972930197728e-04 0.0000000000000000e+00  1.7413835894459321e-04 -5.1533497399039602e-05 0.0000000000000000e+00  6.2320859202961071e-05 -1.7457084489811990e-05 0.0000000000000000e+00  1.0972920904277178e-05 -3.6302080817922261e-06 0.0000000000000000e+00  2.5761586923326651e-06 -1.1401220242148204e-06 0.0000000000000000e+00  1.2449070094118717e-06 -5.2863922647891899e-07 0.0000000000000000e+00  6.4606726496072763e-07 -1.8921982881792054e-07 0.0000000000000000e+00  9.9353017336753210e-02 -2.7491954349757017e-02 0.0000000000000000e+00  9.9576159397611622e-02 2.7759740207832950e-02 0.0000000000000000e+00  0.0000000000000000e+00 0.0000000000000000e+00 0.0000000000000000e+00  0.0000000000000000e+00 0.0000000000000000e+00 0.0000000000000000e+00  5.4798976129267731e-07 -1.2692652930905294e-07 0.0000000000000000e+00  4.8505904372295003e-07 -9.8854981287688472e-08 0.0000000000000000e+00  4.0646886530402381e-07 -7.0970762124553499e-08 0.0000000000000000e+00  3.2262646730497831e-07 -4.7738692352267612e-08 0.0000000000000000e+00  1.7595216832777889e-07 -1.8920244626938333e-08 0.0000000000000000e+00  1.1667428747991449e-07 -1.0173020477946363e-08 0.0000000000000000e+00  7.0904030465667798e-08 -5.1404134380406106e-09 0.0000000000000000e+00  1.7884853296333299e-08 -1.2394425906113264e-09 0.0000000000000000e+00  1.0340242163078875e-09 -1.9129005622106699e-10 0.0000000000000000e+00  5.1941879991503302e-10 -7.2982774654564357e-11 0.0000000000000000e+00  1.8553203143615238e-11 4.4290096355568640e-12 0.0000000000000000e+00  5.0894164604384833e-12 3.8888272658589310e-12 0.0000000000000000e+00  4.4987882422058601e-13 6.0551985328719379e-13 0.0000000000000000e+00  2.3837214665406321e-13 3.0526601618184658e-13 0.0000000000000000e+00  6.3148222490427548e-14 1.7447416757921003e-13 0.0000000000000000e+00  -2.5097382144647217e-14 9.3066864475623322e-14 0.0000000000000000e+00  -4.0627819688975635e-14 6.5491853801578398e-14 0.0000000000000000e+00  -4.5593409992260627e-14 -2.2968416214164600e-14 0.0000000000000000e+00  -2.7580809403739741e-14 -4.0089449202456419e-14 0.0000000000000000e+00  1.7873669457216634e-16 -1.5719435912860259e-14 0.0000000000000000e+00  1.5534281845166056e-18 2.2577857785918305e-17 0.0000000000000000e+00  -1.3320725775360893e-15 1.0780659838678311e-14 0.0000000000000000e+00  3.3489224691422306e-13 7.0048664423405190e-14 0.0000000000000000e+00  1.7961764700022405e-12 -6.4645233582700287e-14 0.0000000000000000e+00  1.5612106141127395e-10 -2.6559030466034015e-11 0.0000000000000000e+00  3.1731948497227547e-10 -4.4248003457937785e-11 0.0000000000000000e+00  5.5696244228862634e-09 8.2713581049467939e-10 0.0000000000000000e+00  8.4411285053142489e-09 -2.1072485840783681e-09 0.0000000000000000e+00  1.7352498096127074e-09 -2.9288192639434374e-10 0.0000000000000000e+00  8.8972393134927379e-10 7.1308899067759522e-11 0.0000000000000000e+00  4.3310567438428323e-10 1.7549332951569956e-10 0.0000000000000000e+00  2.8563847798246441e-10 1.7990843821816141e-10 0.0000000000000000e+00  4.3302119624687591e-11 1.0422310721674065e-10 0.0000000000000000e+00  3.1204486429360192e-11 -2.6605843685728195e-11 0.0000000000000000e+00  1.1425778379580295e-08 -1.2888543551177469e-09 0.0000000000000000e+00  1.9025041025180702e-07 -4.0494878098977461e-08 0.0000000000000000e+00  3.2733795733740254e-06 3.6830764189383640e-07 0.0000000000000000e+00  3.9809096012056667e-05 3.5982752771332420e-06 0.0000000000000000e+00  3.9207330157572229e-04 -5.4595863192933430e-06 0.0000000000000000e+00  8.5255021895277614e-04 -5.6509071018681520e-05 0.0000000000000000e+00  1.1490491749982328e-03 -9.6674288056543113e-05 0.0000000000000000e+00  1.7803603876296744e-03 1.0104875507741266e-05 0.0000000000000000e+00  2.5323387735521129e-03 8.4785544298466289e-07 0.0000000000000000e+00  1.0848383391060239e-03 -1.4130016691112256e-04 0.0000000000000000e+00  2.5950362295534699e-05 -8.3026102105195441e-06 0.0000000000000000e+00  4.7069196341723776e-06 -1.9113737899410351e-06 0.0000000000000000e+00  1.6166820168320791e-06 -7.2533514903106079e-07 0.0000000000000000e+00  1.0053880548498000e-06 -3.6692108034639667e-07 0.0000000000000000e+00  8.3359450131526557e-07 -2.7533612629197353e-07 0.0000000000000000e+00  7.1995102655023186e-07 -2.2187354268423864e-07 0.0000000000000000e+00  9.1310041689612237e-02 -7.9371509801289403e-03 0.0000000000000000e+00  9.0188885587119350e-02 -7.0501268254636587e-04 0.0000000000000000e+00  9.0511859865206379e-02 1.0115780841270403e-04 0.0000000000000000e+00  9.0085047706559077e-02 -1.0606055041673592e-04 0.0000000000000000e+00  9.0332870855962866e-02 4.9106811148767309e-05 0.0000000000000000e+00  9.0383033691866829e-02 -7.6094587557523028e-05 0.0000000000000000e+00  9.0433263017257001e-02 -1.4564766729570128e-05 0.0000000000000000e+00  9.0527284316005596e-02 6.5047390289380089e-04 0.0000000000000000e+00  9.0924302511604244e-02 8.1067973250882053e-03 0.0000000000000000e+00  4.0006776621658698e-02 1.3475098570172811e-02 0.0000000000000000e+00  6.1569975376297202e-03 1.7261914718257935e-03 0.0000000000000000e+00  1.5406326991435979e-04 5.8821522778699722e-05 0.0000000000000000e+00  3.4382341911054932e-07 7.5436354246836604e-07 0.0000000000000000e+00  -1.0168007330598199e-08 -2.3285234305738559e-08 0.0000000000000000e+00  4.3451185698951764e-12 -1.0508650206433911e-09 0.0000000000000000e+00  -5.0970560227635363e-13 -1.7424296602588395e-11 0.0000000000000000e+00  4.0198419521697284e-14 -2.1889746564403932e-13 0.0000000000000000e+00  2.1701212255939259e-15 -1.5741808805622315e-15 0.0000000000000000e+00  7.9228887317413963e-16 -2.5949560210394633e-15 0.0000000000000000e+00  1.4272155697968807e-13 6.5299388608006812e-14 0.0000000000000000e+00  3.4424560538099131e-12 1.4968151416069334e-11 0.0000000000000000e+00  -8.3026832094094292e-12 5.7045401133688993e-10 0.0000000000000000e+00  -3.8618524156541666e-09 8.9602214184461954e-09 0.0000000000000000e+00  2.7160800282583906e-07 -1.8345375381314324e-07 0.0000000000000000e+00  1.2349315189260620e-04 -2.8696660211740398e-05 0.0000000000000000e+00  6.4949867557297526e-03 -1.8490184925517225e-03 0.0000000000000000e+00  3.9855133080981944e-02 -1.3611043193094625e-02 0.0000000000000000e+00  0.0000000000000000e+00 0.0000000000000000e+00 0.0000000000000000e+00  0.0000000000000000e+00 0.0000000000000000e+00 0.0000000000000000e+00  0.0000000000000000e+00 0.0000000000000000e+00 0.0000000000000000e+00  0.0000000000000000e+00 0.0000000000000000e+00 0.0000000000000000e+00  0.0000000000000000e+00 0.0000000000000000e+00 0.0000000000000000e+00  0.0000000000000000e+00 0.0000000000000000e+00 0.0000000000000000e+00  0.0000000000000000e+00 0.0000000000000000e+00 0.0000000000000000e+00  0.0000000000000000e+00 0.0000000000000000e+00 0.0000000000000000e+00  0.0000000000000000e+00 0.0000000000000000e+00 0.0000000000000000e+00  8.2914389094556427e-07 1.3313560388559371e-08 0.0000000000000000e+00  1.5048982147397858e-03 1.6438660764068621e-05 0.0000000000000000e+00  3.6490148176945495e-16 1.1302274139474331e-16 0.0000000000000000e+00  8.2491261267785846e-15 -1.0747766340399299e-15 0.0000000000000000e+00  8.5915464130319522e-04 1.5370596780306315e-05 0.0000000000000000e+00  6.4388361085951222e-07 7.2335053513844715e-08 0.0000000000000000e+00  1.7951041775593170e-02 -1.6388808694660519e-05 0.0000000000000000e+00  6.0745544943356070e-09 -1.2844053511220487e-09 0.0000000000000000e+00  2.3135521013903734e-19 1.6705712402138901e-19 0.0000000000000000e+00  5.4465869393781378e-12 1.0383666539133235e-12 0.0000000000000000e+00  3.2587817718423880e-12 -1.0477473659733021e-12 0.0000000000000000e+00  1.0152419117440710e-16 -4.6254475707159439e-17 0.0000000000000000e+00  1.0172176562747127e-16 3.9152036592757892e-16 0.0000000000000000e+00  5.2857299267298041e-02 -9.2009858403684485e-03 0.0000000000000000e+00  5.2162479362216609e-02 9.8976063549757708e-03 0.0000000000000000e+00  -1.0597757126623775e-13 -4.4165705797770891e-13 0.0000000000000000e+00  1.2594058504914618e-08 -2.4581273179054523e-09 0.0000000000000000e+00  2.2022622086279004e-09 -4.0022877034196435e-10 0.0000000000000000e+00  1.3289584050943004e-10 1.3163602676921556e-10 0.0000000000000000e+00  3.5579718610064626e-07 -1.9183674168847518e-08 0.0000000000000000e+00  3.7870196406380802e-14 1.5790996648906695e-13 0.0000000000000000e+00  5.3530704679746873e-07 -1.4602124071320733e-07 0.0000000000000000e+00  2.7435590746718564e-17 -2.1482935498496510e-17 0.0000000000000000e+00  1.4514346695217567e-02 -3.5434616743676569e-04 0.0000000000000000e+00  7.7084728310124584e-06 -3.5878349874966812e-07 0.0000000000000000e+00  1.8811325442011872e-02 7.6262674939701956e-05 0.0000000000000000e+00  3.4571807830513690e-05 -3.1454971135204668e-06 0.0000000000000000e+00  2.1739492295356874e-02 -1.8778950499452581e-06 0.0000000000000000e+00  2.9843980251882073e-15 2.4766290697651229e-15 0.0000000000000000e+00  5.1518005377754301e-15 3.3913201683195539e-16 0.0000000000000000e+00  4.4521152807214278e-09 1.1482392711568160e-09 0.0000000000000000e+00  1.5550457099928132e-02 8.4044068131938819e-04 0.0000000000000000e+00  8.0297019433901002e-17 7.8019657442151224e-17 0.0000000000000000e+00  2.5092693533712755e-05 2.1600957223586882e-06 0.0000000000000000e+00  1.0331520557940103e-04 3.8627405435178248e-06 0.0000000000000000e+00  3.2475826249526717e-13 -1.3022190211529536e-13 0.0000000000000000e+00  5.8656570405034900e-14 2.2391197498697940e-14 0.0000000000000000e+00  1.2593535358208017e-18 1.9248426802425613e-19 0.0000000000000000e+00  3.3204442285854257e-17 -3.3624252322813061e-18 0.0000000000000000e+00  1.3660859110568972e-10 -4.5498458266311884e-11 0.0000000000000000e+00  5.1611280484578324e-02 -5.5826848015860479e-05 0.0000000000000000e+00  1.6797598585279765e-06 4.5774543316207955e-08 0.0000000000000000e+00  9.1910008462804966e-03 1.8707669149103219e-05 0.0000000000000000e+00  1.7689149632198434e-03 -2.5170996316121314e-05 0.0000000000000000e+00  2.1203000937007084e-09 -3.0370196378131125e-10 0.0000000000000000e+00  6.8411203414676939e-21 -2.2188223000328094e-21 0.0000000000000000e+00  3.9371786614910208e-11 4.3908781998337869e-12 0.0000000000000000e+00  2.0112298195688748e-11 8.9846259269736286e-12 0.0000000000000000e+00  -2.1614983949370624e-14 -9.1436120509081405e-14 0.0000000000000000e+00  1.7207117825475216e-07 -1.0861468993431638e-08 0.0000000000000000e+00  -7.2164713953628145e-14 1.5096314849331926e-13 0.0000000000000000e+00  5.3760125786790485e-08 -6.9312751304763995e-09 0.0000000000000000e+00  3.2483003591697623e-08 -5.7310222901742365e-09 0.0000000000000000e+00  6.9813572965206026e-10 1.3500113724686813e-10 0.0000000000000000e+00  5.6101292798709379e-09 -1.2358696224067913e-09 0.0000000000000000e+00  2.2562820611109408e-11 5.3452196766579928e-11 0.0000000000000000e+00  5.9100835717715077e-07 -1.7944241131501249e-08 0.0000000000000000e+00  2.8738817705274987e-09 -6.6343320226008960e-10 0.0000000000000000e+00  2.2292757650593211e-07 -1.8862475482256862e-08 0.0000000000000000e+00  1.1492008042390018e-09 -1.3873631970277968e-10 0.0000000000000000e+00  7.9436184904446074e-11 9.4414885280946708e-11 0.0000000000000000e+00  2.4912816112710216e-10 1.3900720058697378e-10 0.0000000000000000e+00  -1.0309317050924416e-14 8.6500716137907144e-14 0.0000000000000000e+00  9.3543204464501776e-14 1.7911464188626836e-13 0.0000000000000000e+00  2.2293131156748113e-14 1.2440931152614051e-13 0.0000000000000000e+00  3.8025897369183181e-07 -8.4739107781801848e-08 0.0000000000000000e+00  6.3074465937562815e-07 -1.8519473901828330e-07 0.0000000000000000e+00  5.4122593554655898e-07 -1.4185174800998078e-07 0.0000000000000000e+00  4.6299297609603591e-06 -9.0242097619296893e-07 0.0000000000000000e+00  3.0185804017820561e-02 -6.6998338869352756e-05 0.0000000000000000e+00  6.1566594548813090e-19 2.9068913615680531e-19 0.0000000000000000e+00  3.9303336392897383e-02 3.7370327445908668e-05 0.0000000000000000e+00  6.6818729888627213e-17 -3.4031080238966032e-18 0.0000000000000000e+00  1.4771094367598211e-03 -2.9006275354034685e-05 0.0000000000000000e+00  3.6768670311015279e-02 -4.2602986431961223e-05 0.0000000000000000e+00  1.3135240666766114e-03 -7.7844792847391779e-05 0.0000000000000000e+00  6.0407093951231416e-15 -4.8825220892792826e-14 0.0000000000000000e+00  2.2196272197270418e-19 -1.6666711334878377e-19 0.0000000000000000e+00  4.3095700435684899e-13 2.0864223279343938e-14 0.0000000000000000e+00  1.3850278009148701e-17 -5.0879605486649242e-18 0.0000000000000000e+00  3.4874898750664705e-02 6.8432027814227460e-04 0.0000000000000000e+00  2.9627744495261555e-07 -5.8251883737338121e-08 0.0000000000000000e+00  8.1076784199935753e-18 5.7126809757411502e-17 0.0000000000000000e+00  2.5317085983405627e-08 2.2532446273054072e-09 0.0000000000000000e+00  4.4698014408030604e-02 -2.1453222415189284e-03 0.0000000000000000e+00  4.1325687614276001e-08 1.0255522509330448e-08 0.0000000000000000e+00  5.4110098145750717e-13 -8.2261021252941566e-14 0.0000000000000000e+00  4.1508967852626599e-03 8.6306899373580675e-06 0.0000000000000000e+00  1.0129905184713538e-03 1.0062955961303049e-04 0.0000000000000000e+00  2.9528312727860709e-11 2.1610109729983033e-12 0.0000000000000000e+00  2.2935937753961850e-17 -3.4496864381880424e-17 0.0000000000000000e+00  1.9220329961504613e-02 -2.0882465556940062e-03 0.0000000000000000e+00  1.4425320110919208e-06 -2.3745089503037176e-07 0.0000000000000000e+00  4.2545303591373168e-15 -6.2789991807472657e-15 0.0000000000000000e+00  3.8355422534563758e-13 2.8275489848670319e-13 0.0000000000000000e+00  1.7203854952072187e-10 -3.7404890038128180e-11 0.0000000000000000e+00  3.1986125283216644e-05 -2.4348765060906565e-06 0.0000000000000000e+00  4.3756999038591680e-16 8.5329896401463264e-18 0.0000000000000000e+00  1.3553881134758956e-15 3.2504542160577834e-15 0.0000000000000000e+00  2.5508705045685469e-03 3.1163049014203598e-05 0.0000000000000000e+00  8.9376557836798407e-06 5.7157703923039941e-07 0.0000000000000000e+00  1.5485722161255263e-17 2.6004066766401181e-17 0.0000000000000000e+00  9.0620123178249175e-16 5.6070233241471861e-16 0.0000000000000000e+00  1.1839217802190568e-04 1.1609784648340629e-05 0.0000000000000000e+00  1.8890217103588840e-05 -1.3717780432817213e-07 0.0000000000000000e+00  2.2233332942161744e-04 -2.6393443319120599e-06 0.0000000000000000e+00  -1.2065461095498240e-10 -4.2432413910444611e-10 0.0000000000000000e+00  7.8748186706655600e-03 -3.0257387585309135e-05 0.0000000000000000e+00  9.6360805673880419e-12 -6.8578475760357601e-13 0.0000000000000000e+00  2.4915793867973737e-12 -2.2269938326250613e-12 0.0000000000000000e+00  1.9764565796771318e-13 2.3713365876541950e-13 0.0000000000000000e+00  1.3696167649657235e-06 -9.5021180514712956e-08 0.0000000000000000e+00  9.7092923216743981e-10 -6.3426598314288342e-11 0.0000000000000000e+00  4.0874526776071200e-10 4.1587409811957716e-11 0.0000000000000000e+00  2.0517136160317447e-06 -3.4606104326276667e-08