<?xml version="1.0"?>
<VTKFile type="UnstructuredGrid"  version="0.1"  >
<UnstructuredGrid>
<Piece  NumberOfPoints="2868" NumberOfCells="5400">
<Points>
<DataArray  type="Float64"  NumberOfComponents="3"  format="ascii">0.534923 0.326073 0  0.510642 0.314196 0  0.466125 0.293082 0  0.436448 0.281205 0  0.409468 0.275927 0  0.368998 0.270648 0  0.35281 0.275927 0  0.381139 0.302319 0  0.405421 0.326073 0  0.410817 0.33531 0  0.408119 0.349826 0  0.400025 0.357744 0  0.375743 0.368301 0  0.329878 0.392055 0  0.297502 0.432963 0  0.282663 0.476511 0  0.285361 0.524018 0  0.298851 0.572845 0  0.317737 0.6045160000000001 0  0.337972 0.6361869999999999 0  0.360904 0.674457 0  0.368998 0.69953 0  0.359555 0.7219640000000001 0  0.360904 0.757594 0  0.370347 0.766831 0  0.381139 0.762872 0  0.390582 0.741758 0  0.404072 0.720644 0  0.424307 0.707448 0  0.447239 0.702169 0  0.480964 0.704808 0  0.479615 0.6889729999999999 0  0.468823 0.675776 0  0.447239 0.6691780000000001 0  0.428354 0.6691780000000001 0  0.410817 0.6639 0  0.404072 0.653343 0  0.395978 0.628269 0  0.387884 0.59132 0  0.389233 0.576804 0  0.397327 0.557009 0  0.410817 0.547772 0  0.424307 0.546452 0  0.437797 0.55305 0  0.44589 0.5662469999999999 0  0.441843 0.582082 0  0.439145 0.5979179999999999 0  0.449937 0.609795 0  0.468823 0.603196 0  0.479615 0.59 0  0.489058 0.570205 0  0.494454 0.546452 0  0.505246 0.522699 0  0.522783 0.509502 0  0.55246 0.494986 0  0.586185 0.484429 0  0.615863 0.48047 0  0.64554 0.473872 0  0.6671240000000001 0.461995 0  0.683312 0.451438 0  0.696802 0.435603 0  0.703547 0.417128 0  0.7116400000000001 0.393374 0  0.7183850000000001 0.37226 0  0.7251300000000001 0.364342 0  0.739969 0.353785 0  0.7453650000000001 0.344548 0  0.7453650000000001 0.327393 0  0.737271 0.318155 0  0.7183850000000001 0.316835 0  0.7008490000000001 0.319475 0  0.677916 0.318155 0  0.650936 0.316835 0  0.610467 0.318155 0  0.57944 0.324753 0  0.559205 0.328712 0  0.5389699999999999 0.326073 0  1 1 0  1 0 0  0 0 0  0 1 0  0.532238 0.32476 0  0.528748 0.323052 0  0.52421 0.320833 0  0.518311 0.317947 0  0.503447 0.310783 0  0.494093 0.306347 0  0.481933 0.30058 0  0.452151 0.28749 0  0.392327 0.273691 0  0.379141 0.271971 0  0.360474 0.283066 0  0.369797 0.291752 0  0.391424 0.31238 0  0.399335 0.32012 0  0.40958 0.341964 0  0.393939 0.36039 0  0.386028 0.36383 0  0.364248 0.374254 0  0.349304 0.381994 0  0.315801 0.409841 0  0.292986 0.551616 0  0.350934 0.657818 0  0.360127 0.737055 0  0.360566 0.748664 0  0.385245 0.753692 0  0.396447 0.732578 0  0.466301 0.703661 0  0.459439 0.672908 0  0.418442 0.666195 0  0.400553 0.642441 0  0.39255 0.612619 0  0.389913 0.60058 0  0.392752 0.568197 0  0.444131 0.573132 0  0.458149 0.606926 0  0.5005540000000001 0.533026 0  0.571522 0.489019 0  0.632637 0.476741 0  0.689177 0.444553 0  0.708121 0.403702 0  0.715453 0.38144 0  0.732406 0.359166 0  0.7453650000000001 0.337089 0  0.72906 0.317581 0  0.629879 0.317522 0  0.59293 0.321884 0  0.568003 0.326991 0  0.55202 0.327775 0  0.546493 0.327054 0  0.542241 0.326499 0  1 0.9 0  1 0.8 0  1 0.7 0  1 0.6 0  1 0.5 0  1 0.4 0  1 0.3 0  1 0.2 0  1 0.1 0  0.9 0 0  0.8 0 0  0.7 0 0  0.6 0 0  0.5 0 0  0.4 0 0  0.3 0 0  0.2 0 0  0.1 0 0  0.1 1 0  0.2 1 0  0.3 1 0  0.4 1 0  0.5 1 0  0.6 1 0  0.7 1 0  0.8 1 0  0.9 1 0  0 0.1 0  0 0.2 0  0 0.3 0  0 0.4 0  0 0.5 0  0 0.6 0  0 0.7 0  0 0.8 0  0 0.9 0  0.535686 0.5031910000000001 0  0.753987 0.733359 0  0.167145 0.741436 0  0.173378 0.257204 0  0.733497 0.159862 0  0.554096 0.15788 0  0.849187 0.479053 0  0.488793 0.838452 0  0.138507 0.5592 0  0.30686 0.154944 0  0.348904 0.890523 0  0.058006 0.065099 0  0.06984899999999999 0.937917 0  0.93633 0.939704 0  0.934625 0.053613 0  0.343397 0.333452 0  0.473272 0.639943 0  0.433266 0.638072 0  0.415174 0.58269 0  0.533435 0.545042 0  0.390848 0.340652 0  0.53655 0.320242 0  0.127966 0.393775 0  0.83861 0.850455 0  0.635242 0.8551299999999999 0  0.852158 0.633441 0  0.653427 0.626848 0  0.861226 0.24292 0  0.166128 0.12976 0  0.216875 0.8698709999999999 0  0.458305 0.11179 0  0.84446 0.101633 0  0.202024 0.642528 0  0.644825 0.115855 0  0.671342 0.218358 0  0.251354 0.286186 0  0.262388 0.75153 0  0.063044 0.751571 0  0.068189 0.242962 0  0.435781 0.9053949999999999 0  0.934144 0.451133 0  0.568393 0.237622 0  0.814984 0.395506 0  0.752951 0.517227 0  0.456254 0.780699 0  0.073352 0.531116 0  0.337731 0.206071 0  0.363213 0.960371 0  0.330742 0.363592 0  0.516613 0.55705 0  0.369057 0.332992 0  0.500926 0.617309 0  0.498004 0.665534 0  0.412142 0.61178 0  0.454233 0.6366039999999999 0  0.422782 0.567496 0  0.541193 0.5214800000000001 0  0.439761 0.65557 0  0.5163 0.533672 0  0.414775 0.64562 0  0.40073 0.576135 0  0.430362 0.5880339999999999 0  0.385432 0.351492 0  0.400298 0.335397 0  0.398325 0.348194 0  0.528702 0.314885 0  0.540814 0.322334 0  0.534477 0.322953 0  0.619095 0.743583 0  0.885162 0.737972 0  0.08076 0.668849 0  0.90734 0.36634 0  0.09468699999999999 0.868937 0  0.759838 0.912152 0  0.901518 0.540898 0  0.747285 0.607479 0  0.229182 0.071641 0  0.06915399999999999 0.450091 0  0.244775 0.203309 0  0.076534 0.331755 0  0.897847 0.167826 0  0.578909 0.911415 0  0.07713299999999999 0.146341 0  0.477215 0.203448 0  0.922631 0.869341 0  0.517415 0.074785 0  0.297026 0.827793 0  0.7832710000000001 0.246505 0  0.74519 0.061079 0  0.36033 0.069068 0  0.210313 0.475228 0  0.859426 0.928758 0  0.5745479999999999 0.609182 0  0.243069 0.383398 0  0.283099 0.934598 0  0.417416 0.843141 0  0.643942 0.553164 0  0.112687 0.079336 0  0.281357 0.658386 0  0.765043 0.436177 0  0.611361 0.198486 0  0.234496 0.58911 0  0.206479 0.702638 0  0.679608 0.155818 0  0.62682 0.259978 0  0.690538 0.264164 0  0.448938 0.956308 0  0.808154 0.328403 0  0.379583 0.91913 0  0.308083 0.297769 0  0.312358 0.730249 0  0.563101 0.278576 0  0.435597 0.746198 0  0.385475 0.225229 0  0.572248 0.518034 0  0.357864 0.35422 0  0.497647 0.641694 0  0.458101 0.655768 0  0.360474 0.310727 0  0.467038 0.620139 0  0.47798 0.659909 0  0.41102 0.628072 0  0.48324 0.609015 0  0.427544 0.617941 0  0.388633 0.328253 0  0.405336 0.599404 0  0.408351 0.565178 0  0.42395 0.600985 0  0.431562 0.576523 0  0.424905 0.6551979999999999 0  0.398064 0.58782 0  0.427739 0.557934 0  0.5192909999999999 0.303443 0  0.53142 0.320293 0  0.5449000000000001 0.323642 0  0.537166 0.323513 0  0.153974 0.920841 0  0.9181859999999999 0.67343 0  0.759946 0.820588 0  0.5375259999999999 0.783091 0  0.816532 0.545843 0  0.813991 0.178083 0  0.836774 0.702023 0  0.149815 0.318856 0  0.662287 0.923338 0  0.680146 0.791192 0  0.708961 0.663172 0  0.9372779999999999 0.287318 0  0.574622 0.6881660000000001 0  0.5894740000000001 0.076262 0  0.502822 0.926683 0  0.222269 0.811068 0  0.380457 0.164786 0  0.15321 0.684154 0  0.458063 0.051413 0  0.161702 0.056026 0  0.199351 0.198818 0  0.298946 0.09553200000000001 0  0.902465 0.795949 0  0.121139 0.791477 0  0.906269 0.112287 0  0.056109 0.822332 0  0.512172 0.13237 0  0.940964 0.741805 0  0.888887 0.408777 0  0.354543 0.825964 0  0.808736 0.068638 0  0.068507 0.394071 0  0.719105 0.563843 0  0.247287 0.149664 0  0.293062 0.237128 0  0.240524 0.434997 0  0.141255 0.623289 0  0.945202 0.160621 0  0.502914 0.247629 0  0.144669 0.480811 0  0.665025 0.060817 0  0.728047 0.224344 0  0.861995 0.313312 0  0.200068 0.534235 0  0.253262 0.965623 0  0.893804 0.49307 0  0.604391 0.572456 0  0.947088 0.345347 0  0.439372 0.227307 0  0.629847 0.159823 0  0.273405 0.880181 0  0.302744 0.776823 0  0.781502 0.295365 0  0.275342 0.349602 0  0.7283849999999999 0.472798 0  0.229136 0.246478 0  0.807794 0.480346 0  0.709476 0.112786 0  0.275506 0.694991 0  0.771674 0.394419 0  0.449715 0.861802 0  0.419159 0.799696 0  0.674851 0.503139 0  0.280443 0.61016 0  0.572443 0.192538 0  0.393113 0.87525 0  0.405555 0.948428 0  0.330942 0.934103 0  0.540509 0.597101 0  0.312763 0.6689310000000001 0  0.254368 0.540179 0  0.595265 0.25915 0  0.606679 0.234099 0  0.657131 0.279138 0  0.722458 0.279478 0  0.333 0.308056 0  0.351529 0.246142 0  0.455714 0.7257940000000001 0  0.585239 0.295143 0  0.340062 0.72492 0  0.545593 0.293773 0  0.555449 0.545426 0  0.414311 0.737314 0  0.590854 0.502323 0  0.350507 0.368444 0  0.484423 0.625665 0  0.483899 0.674542 0  0.378137 0.317274 0  0.446416 0.646404 0  0.373532 0.347654 0  0.446876 0.619769 0  0.466106 0.666068 0  0.437545 0.609254 0  0.434988 0.565726 0  0.41462 0.656829 0  0.418803 0.556961 0  0.398425 0.327446 0  0.517803 0.310421 0  0.549516 0.322918 0  0.57701 0.842889 0  0.8291269999999999 0.773906 0  0.643235 0.684732 0  0.134281 0.207734 0  0.865997 0.055966 0  0.680959 0.723345 0  0.165229 0.8415550000000001 0  0.54558 0.959672 0  0.783726 0.656439 0  0.913315 0.595533 0  0.699439 0.860667 0  0.785839 0.125076 0  0.551673 0.037713 0  0.9200970000000001 0.223214 0  0.206406 0.299726 0  0.087064 0.596401 0  0.935644 0.394252 0  0.964557 0.252582 0  0.230124 0.928346 0  0.120579 0.271764 0  0.8572149999999999 0.524082 0  0.7670979999999999 0.5551469999999999 0  0.936094 0.507131 0  0.804064 0.59585 0  0.700565 0.608273 0  0.429773 0.174231 0  0.117746 0.727333 0  0.5389620000000001 0.730231 0  0.862761 0.359173 0  0.821444 0.284046 0  0.193552 0.35818 0  0.234923 0.505555 0  0.193209 0.421217 0  0.220144 0.755896 0  0.594015 0.131642 0  0.283813 0.195855 0  0.517519 0.213961 0  0.553509 0.639116 0  0.280391 0.378018 0  0.852183 0.436817 0  0.746983 0.197173 0  0.821806 0.221318 0  0.449853 0.828453 0  0.883758 0.453926 0  0.183484 0.589542 0  0.348384 0.129314 0  0.255254 0.838525 0  0.504849 0.798516 0  0.320344 0.863432 0  0.611669 0.525425 0  0.265864 0.804962 0  0.72056 0.521442 0  0.613372 0.6101220000000001 0  0.481262 0.881068 0  0.655778 0.191988 0  0.701921 0.196918 0  0.5658260000000001 0.5731810000000001 0  0.46914 0.240927 0  0.343219 0.173284 0  0.888786 0.278502 0  0.244113 0.6750930000000001 0  0.739546 0.417914 0  0.784023 0.355942 0  0.326805 0.265549 0  0.248616 0.6
[...]
<PointData  Vectors="f_21"> 
<DataArray  type="Float64"  Name="f_21"  NumberOfComponents="3" format="ascii">1.1970506290893770e+00 2.0010419808731891e-01 0.0000000000000000e+00  1.1586631645879275e+00 2.2139554776615136e-01 0.0000000000000000e+00  1.0339123050546648e+00 2.5817752036857977e-01 0.0000000000000000e+00  9.1795671299044823e-01 2.7418410460006493e-01 0.0000000000000000e+00  8.0450451068383277e-01 2.7657677458703001e-01 0.0000000000000000e+00  6.0392172884566453e-01 2.7560947183169238e-01 0.0000000000000000e+00  4.8172472406633160e-01 2.5171275336650256e-01 0.0000000000000000e+00  3.4126666250322535e-01 3.3309872579049588e-01 0.0000000000000000e+00  2.7167006891429879e-01 3.9368688992495160e-01 0.0000000000000000e+00  2.4562940428605934e-01 4.0868807106832522e-01 0.0000000000000000e+00  2.0424233555243301e-01 4.0095673158866141e-01 0.0000000000000000e+00  1.8147353316463760e-01 3.7773519661088922e-01 0.0000000000000000e+00  1.5158061294811070e-01 3.0637820039603364e-01 0.0000000000000000e+00  1.0125371221664214e-01 1.6594365224498797e-01 0.0000000000000000e+00  5.0214494723195113e-02 6.2923270330311837e-02 0.0000000000000000e+00  2.6599597744793233e-02 -1.2637052136328117e-02 0.0000000000000000e+00  2.9534960062844853e-02 -8.2095137810207178e-02 0.0000000000000000e+00  5.1286315848435578e-02 -1.5651666726527153e-01 0.0000000000000000e+00  8.1131585393273892e-02 -2.2312732282802181e-01 0.0000000000000000e+00  1.2711595927773972e-01 -2.9430785758294770e-01 0.0000000000000000e+00  2.0801395072783627e-01 -3.8198657678584269e-01 0.0000000000000000e+00  2.7593389001408836e-01 -4.1789024486843618e-01 0.0000000000000000e+00  3.4389390625899457e-01 -4.1014817521040015e-01 0.0000000000000000e+00  5.6101167706890687e-01 -4.4977448343765153e-01 0.0000000000000000e+00  7.3640696756223556e-01 -4.9433669331670632e-01 0.0000000000000000e+00  8.8011681326831237e-01 -4.9749407646074190e-01 0.0000000000000000e+00  1.0927737228398475e+00 -4.8565257301541298e-01 0.0000000000000000e+00  1.1992404011591253e+00 -4.3753181406056474e-01 0.0000000000000000e+00  1.2461962350336315e+00 -3.8302399231508366e-01 0.0000000000000000e+00  1.2687964798950011e+00 -3.4159906063296297e-01 0.0000000000000000e+00  1.3347030732354128e+00 -3.3776739791355453e-01 0.0000000000000000e+00  1.4365025199819053e+00 -3.6492465426315679e-01 0.0000000000000000e+00  1.4830429070838289e+00 -4.0435186028514714e-01 0.0000000000000000e+00  1.4966649962867435e+00 -4.8184350916531232e-01 0.0000000000000000e+00  1.4927881763213990e+00 -5.5190720567798313e-01 0.0000000000000000e+00  1.5109899452019360e+00 -6.1492524301780849e-01 0.0000000000000000e+00  1.5479375286389594e+00 -6.3857129396665235e-01 0.0000000000000000e+00  1.6348309149305735e+00 -6.6629074455344284e-01 0.0000000000000000e+00  1.7584759277128801e+00 -6.9176273053757764e-01 0.0000000000000000e+00  1.8057408484986313e+00 -6.8699496497976542e-01 0.0000000000000000e+00  1.8700721057997867e+00 -6.6033512133020589e-01 0.0000000000000000e+00  1.9001767919392771e+00 -6.1610712708123450e-01 0.0000000000000000e+00  1.9044798054446397e+00 -5.7171068191574481e-01 0.0000000000000000e+00  1.8826918237913388e+00 -5.2717794467796375e-01 0.0000000000000000e+00  1.8393695568290356e+00 -5.0056479650442642e-01 0.0000000000000000e+00  1.7883250113505367e+00 -5.1295908656859335e-01 0.0000000000000000e+00  1.7385708769298143e+00 -5.1753321464740387e-01 0.0000000000000000e+00  1.6988977388883750e+00 -4.7152418977846733e-01 0.0000000000000000e+00  1.7161553847842459e+00 -3.9453472343774110e-01 0.0000000000000000e+00  1.7466093995912022e+00 -3.5180585897155586e-01 0.0000000000000000e+00  1.7868486897461087e+00 -3.1573429134823239e-01 0.0000000000000000e+00  1.8317690173588237e+00 -2.9530757936547447e-01 0.0000000000000000e+00  1.8759214013059233e+00 -2.6910875230296222e-01 0.0000000000000000e+00  1.8991031950747479e+00 -2.3178245283800331e-01 0.0000000000000000e+00  1.9195634166972153e+00 -1.7172035900892280e-01 0.0000000000000000e+00  1.9289962234390463e+00 -1.1074307070549382e-01 0.0000000000000000e+00  1.9263359049160973e+00 -6.0808521710528286e-02 0.0000000000000000e+00  1.9228466791634098e+00 -1.1223773292558702e-02 0.0000000000000000e+00  1.9233196961772618e+00 2.3924536072517932e-02 0.0000000000000000e+00  1.9204538887125719e+00 5.4267321162334008e-02 0.0000000000000000e+00  1.9135956442074711e+00 8.5062569910712871e-02 0.0000000000000000e+00  1.8989884787658455e+00 1.0894213826029413e-01 0.0000000000000000e+00  1.8744368631143051e+00 1.3165775867143614e-01 0.0000000000000000e+00  1.8474369290503199e+00 1.4222614535525502e-01 0.0000000000000000e+00  1.8380394968823872e+00 1.4193973694602527e-01 0.0000000000000000e+00  1.8154838858253086e+00 1.4917984160475806e-01 0.0000000000000000e+00  1.7823055101218488e+00 1.5734962208289960e-01 0.0000000000000000e+00  1.6941618078961274e+00 1.6978644834450010e-01 0.0000000000000000e+00  1.6154558886391799e+00 1.7891139227499839e-01 0.0000000000000000e+00  1.5334728641563593e+00 1.7517911063507341e-01 0.0000000000000000e+00  1.4876565770978145e+00 1.7278077753607124e-01 0.0000000000000000e+00  1.4389792688251895e+00 1.7948177065529103e-01 0.0000000000000000e+00  1.3763821700496883e+00 1.8802028966566786e-01 0.0000000000000000e+00  1.2862608080408724e+00 1.9378074166036610e-01 0.0000000000000000e+00  1.2320447749684669e+00 1.8951507232246967e-01 0.0000000000000000e+00  1.2138530548953526e+00 1.8949715491053207e-01 0.0000000000000000e+00  1.1989862571441054e+00 1.9770919485661398e-01 0.0000000000000000e+00  1.5459621207461249e+00 1.8993153535872132e-01 0.0000000000000000e+00  1.5035605022685192e+00 -2.1654368217737152e-03 0.0000000000000000e+00  0.0000000000000000e+00 0.0000000000000000e+00 0.0000000000000000e+00  0.0000000000000000e+00 0.0000000000000000e+00 0.0000000000000000e+00  1.1946278889345829e+00 2.0238009115915828e-01 0.0000000000000000e+00  1.1903288425489935e+00 2.0541001843837739e-01 0.0000000000000000e+00  1.1836436697052040e+00 2.0937425359503808e-01 0.0000000000000000e+00  1.1736950241307655e+00 2.1463484623063531e-01 0.0000000000000000e+00  1.1429806275438439e+00 2.2756070563510786e-01 0.0000000000000000e+00  1.1201326059529035e+00 2.3566515089289919e-01 0.0000000000000000e+00  1.0865725531281640e+00 2.4575010533877356e-01 0.0000000000000000e+00  9.8391184081037153e-01 2.6700899108909071e-01 0.0000000000000000e+00  7.3157557176216503e-01 2.7530865461155912e-01 0.0000000000000000e+00  6.6928193936947067e-01 2.7537510700313744e-01 0.0000000000000000e+00  4.2209902877751404e-01 2.8474353714713102e-01 0.0000000000000000e+00  3.7918736464181962e-01 3.0743588286919699e-01 0.0000000000000000e+00  3.1044552210001924e-01 3.5714564037298735e-01 0.0000000000000000e+00  2.8837533052949527e-01 3.7733432183347165e-01 0.0000000000000000e+00  2.2674101378847547e-01 4.0515987138170673e-01 0.0000000000000000e+00  1.7382453342807927e-01 3.6012468008638321e-01 0.0000000000000000e+00  1.6394046991315767e-01 3.3702547017899814e-01 0.0000000000000000e+00  1.3623891020451553e-01 2.7133354752842198e-01 0.0000000000000000e+00  1.1897387125162720e-01 2.2571699548872318e-01 0.0000000000000000e+00  7.5263604719483720e-02 1.2036652949069002e-01 0.0000000000000000e+00  4.0074462134972913e-02 -1.2284716775596999e-01 0.0000000000000000e+00  1.6873342927127907e-01 -3.4357915270278544e-01 0.0000000000000000e+00  4.0961843770220668e-01 -4.3235209315905326e-01 0.0000000000000000e+00  4.7940816028076999e-01 -4.4790404660362670e-01 0.0000000000000000e+00  1.0023206191857592e+00 -5.0202145855741553e-01 0.0000000000000000e+00  1.1458315244234658e+00 -4.6367989040948671e-01 0.0000000000000000e+00  1.2895242826733659e+00 -3.2620464470038285e-01 0.0000000000000000e+00  1.4886789430511909e+00 -4.3754051572305974e-01 0.0000000000000000e+00  1.5029430999703506e+00 -5.8779038742550238e-01 0.0000000000000000e+00  1.5858991632956772e+00 -6.5082268722429970e-01 0.0000000000000000e+00  1.6882151037923681e+00 -6.7739327014175066e-01 0.0000000000000000e+00  1.7281917331057588e+00 -6.8548766015144469e-01 0.0000000000000000e+00  1.8336842317514819e+00 -6.7536239945661591e-01 0.0000000000000000e+00  1.8170294430425542e+00 -5.0618395316081843e-01 0.0000000000000000e+00  1.7078963449634252e+00 -4.3757971906045684e-01 0.0000000000000000e+00  1.8565973978642052e+00 -2.8002509112423246e-01 0.0000000000000000e+00  1.9251682502224776e+00 -1.3642632652955630e-01 0.0000000000000000e+00  1.9251806425569937e+00 -3.2951543986778742e-02 0.0000000000000000e+00  1.9182398247198098e+00 6.8006610464129785e-02 0.0000000000000000e+00  1.8861138910116297e+00 1.2286708884344458e-01 0.0000000000000000e+00  1.8591534490502160e+00 1.3936309094863189e-01 0.0000000000000000e+00  1.8288436772537324e+00 1.4387294433951622e-01 0.0000000000000000e+00  1.7488021938814289e+00 1.6934224207069723e-01 0.0000000000000000e+00  1.5746329479185404e+00 1.7579634250444123e-01 0.0000000000000000e+00  1.3283566228403727e+00 1.9122831977317237e-01 0.0000000000000000e+00  1.2514674510178505e+00 1.9146599661059688e-01 0.0000000000000000e+00  1.2200168830332174e+00 1.8879911602746233e-01 0.0000000000000000e+00  1.2093425556642627e+00 1.9166703675388766e-01 0.0000000000000000e+00  1.2050071848894301e+00 1.9401675120960019e-01 0.0000000000000000e+00  1.2015885943365316e+00 1.9601327612883032e-01 0.0000000000000000e+00  1.6636371048563288e+00 2.1122321263228047e-01 0.0000000000000000e+00  1.7846148431472220e+00 2.0972336726823762e-01 0.0000000000000000e+00  1.8954217952744510e+00 1.8639234614197317e-01 0.0000000000000000e+00  1.9851013922233216e+00 1.4213369399051493e-01 0.0000000000000000e+00  2.0266333357417960e+00 6.8693434959532257e-02 0.0000000000000000e+00  1.9843428254526354e+00 -1.4703475566762705e-02 0.0000000000000000e+00  1.8682868194394457e+00 -6.5530850857921083e-02 0.0000000000000000e+00  1.7326320751607378e+00 -6.5570645922829726e-02 0.0000000000000000e+00  1.6085629378058226e+00 -3.6180919098513932e-02 0.0000000000000000e+00  1.4081087628110944e+00 1.0308557445136389e-01 0.0000000000000000e+00  1.3079025351018252e+00 2.0365621624103356e-01 0.0000000000000000e+00  1.1935319626311509e+00 2.9877873035846364e-01 0.0000000000000000e+00  1.0654952458525349e+00 3.7672820815463459e-01 0.0000000000000000e+00  9.2413155123958779e-01 4.2797247333819927e-01 0.0000000000000000e+00  7.8331034617292417e-01 4.2865439789689019e-01 0.0000000000000000e+00  6.3277284687253321e-01 3.5757109010314558e-01 0.0000000000000000e+00  4.5242806296362315e-01 2.5276287147362697e-01 0.0000000000000000e+00  2.4940080348919788e-01 1.4489782495482006e-01 0.0000000000000000e+00  2.9975957064967595e-01 -2.1128934950228581e-01 0.0000000000000000e+00  5.1147319173384109e-01 -3.6265900218613956e-01 0.0000000000000000e+00  6.8255242151826601e-01 -4.7547126048742921e-01 0.0000000000000000e+00  8.0685521981719976e-01 -5.2191641116779508e-01 0.0000000000000000e+00  9.2909039517891978e-01 -4.5498327047301906e-01 0.0000000000000000e+00  1.0780642465316614e+00 -3.3451996871587231e-01 0.0000000000000000e+00  1.2213207849071375e+00 -2.0647378415313544e-01 0.0000000000000000e+00  1.3406311068543970e+00 -6.6925779871045976e-02 0.0000000000000000e+00  1.4475961072818264e+00 6.9760214986910415e-02 0.0000000000000000e+00  0.0000000000000000e+00 0.0000000000000000e+00 0.0000000000000000e+00  0.0000000000000000e+00 0.0000000000000000e+00 0.0000000000000000e+00  0.0000000000000000e+00 0.0000000000000000e+00 0.0000000000000000e+00  0.0000000000000000e+00 0.0000000000000000e+00 0.0000000000000000e+00  0.0000000000000000e+00 0.0000000000000000e+00 0.0000000000000000e+00  0.0000000000000000e+00 0.0000000000000000e+00 0.0000000000000000e+00  0.0000000000000000e+00 0.0000000000000000e+00 0.0000000000000000e+00  0.0000000000000000e+00 0.0000000000000000e+00 0.0000000000000000e+00  0.0000000000000000e+00 0.0000000000000000e+00 0.0000000000000000e+00  1.9085147822516189e+00 -2.0504059079408615e-01 0.0000000000000000e+00  1.6427405993510358e+00 -6.3345401020127698e-04 0.0000000000000000e+00  1.8215293532086399e-01 -9.5912275616362702e-02 0.0000000000000000e+00  2.0750281423287006e-01 2.7895801303206555e-02 0.0000000000000000e+00  1.3748298895405018e+00 2.1580610450234231e-01 0.0000000000000000e+00  1.0738931644519574e+00 3.1361153480810228e-01 0.0000000000000000e+00  1.9459754941452361e+00 8.0873386384110388e-02 0.0000000000000000e+00  1.0353694260080932e+00 -3.7552950485632208e-01 0.0000000000000000e+00  2.3389298462298889e-02 -3.3010403091362939e-02 0.0000000000000000e+00  5.6476570641367585e-01 2.6505473673763136e-01 0.0000000000000000e+00  7.2743618537343269e-01 -4.6178964059534894e-01 0.0000000000000000e+00  1.0842623434316843e-01 5.1907054129905858e-02 0.0000000000000000e+00  1.5179036484051633e-01 -1.0680461990821659e-01 0.0000000000000000e+00  1.5589367843419308e+00 1.3054638026584231e-01 0.0000000000000000e+00  1.4964549024786700e+00 4.9805078299180794e-02 0.0000000000000000e+00  2.4199800159038909e-01 2.1720451093472284e-01 0.0000000000000000e+00  1.6005549432637955e+00 -3.8501764236410102e-01 0.0000000000000000e+00  1.6016876686645829e+00 -5.3347894325322753e-01 0.0000000000000000e+00  1.7869984392777662e+00 -6.0093145001644432e-01 0.0000000000000000e+00  1.8341034830522787e+00 -2.1140637793313366e-01 0.0000000000000000e+00  2.3004811106678091e-01 3.5221318341162977e-01 0.0000000000000000e+00  1.1918712455509104e+00 2.0030787174115813e-01 0.0000000000000000e+00  4.8002003644123874e-02 -3.6532722009578272e-02 0.0000000000000000e+00  1.5799140906096067e+00 3.1595033198096714e-02 0.0000000000000000e+00  1.2975729233830797e+00 -2.0166707353626853e-01 0.0000000000000000e+00  1.8565643574602173e+00 8.5048290493192111e-02 0.0000000000000000e+00  1.7167498558434378e+00 -3.6122637320178799e-02 0.0000000000000000e+00  1.6520250515004353e+00 7.0178295649948819e-02 0.0000000000000000e+00  2.8774994422422301e-01 1.2071245052387697e-01 0.0000000000000000e+00  4.2479865102612091e-01 -2.7299133812301157e-01 0.0000000000000000e+00  8.6976576454442422e-01 3.7563901250005338e-01 0.0000000000000000e+00  1.4531678513074284e+00 1.2868589836456368e-01 0.0000000000000000e+00  9.6109677320669037e-02 -7.8039706271533740e-02 0.0000000000000000e+00  1.2070440355533523e+00 2.9319442679019808e-01 0.0000000000000000e+00  1.3393597512362232e+00 2.3585653720497765e-01 0.0000000000000000e+00  2.8295475341755594e-01 7.1027320278159028e-02 0.0000000000000000e+00  3.4525425746708333e-01 -2.0425150402128411e-01 0.0000000000000000e+00  6.2266689894932267e-02 -2.1507657999923182e-02 0.0000000000000000e+00  7.5202278917156515e-02 -7.5868481778529053e-03 0.0000000000000000e+00  8.8269451038756386e-01 -4.6788110840776415e-01 0.0000000000000000e+00  1.9782967930704445e+00 5.0237541325574266e-02 0.0000000000000000e+00  1.1645777185371786e+00 2.4950037042792145e-01 0.0000000000000000e+00  1.8899030767186815e+00 8.1350736522461164e-02 0.0000000000000000e+00  1.8983458809947691e+00 7.6695091816325264e-02 0.0000000000000000e+00  1.0591633277433730e+00 -3.7209838912895282e-01 0.0000000000000000e+00  1.1657339761706034e-02 -1.7519537538792262e-02 0.0000000000000000e+00  6.0533985663132073e-01 2.7001166440890018e-01 0.0000000000000000e+00  7.5684681183903502e-01 -4.9629442590582190e-01 0.0000000000000000e+00  1.6416803649837020e-01 1.7512573136482321e-01 0.0000000000000000e+00  1.8124167715901451e+00 -2.4906113027282181e-01 0.0000000000000000e+00  2.4905361908608994e-01 2.9157859553882870e-01 0.0000000000000000e+00  1.6743718425587393e+00 -2.9526431577920992e-01 0.0000000000000000e+00  1.5254152634162303e+00 -3.0597558566374833e-01 0.0000000000000000e+00  1.6913352672751683e+00 -6.1073785191937791e-01 0.0000000000000000e+00  1.6078656360497492e+00 -4.5421271859341328e-01 0.0000000000000000e+00  1.8357609850823213e+00 -5.7628230479322617e-01 0.0000000000000000e+00  1.8755508865102009e+00 -1.9391376206950933e-01 0.0000000000000000e+00  1.5425039461182763e+00 -5.0905039638631644e-01 0.0000000000000000e+00  1.8552969006981663e+00 -2.4675632402347875e-01 0.0000000000000000e+00  1.5749863514873790e+00 -6.0079923054290507e-01 0.0000000000000000e+00  1.8080095413825854e+00 -6.4921261696355548e-01 0.0000000000000000e+00  1.7699826548625981e+00 -5.4940220141563645e-01 0.0000000000000000e+00  1.9921469564208172e-01 3.3572590470581903e-01 0.0000000000000000e+00  2.4532803473658793e-01 3.7911973621609368e-01 0.0000000000000000e+00  2.0885876967767125e-01 3.7300519468095422e-01 0.0000000000000000e+00  1.1776473321805268e+00 2.0699521904642079e-01 0.0000000000000000e+00  1.1973001510129504e+00 1.9763408627727588e-01 0.0000000000000000e+00  1.1934889708634759e+00 2.0090018442189933e-01 0.0000000000000000e+00  1.4478394586975221e+00 -1.3579152996046215e-01 0.0000000000000000e+00  1.7658570357154131e+00 9.6584216513927693e-02 0.0000000000000000e+00  4.5345084659971641e-02 -1.5741711356038232e-02 0.0000000000000000e+00  1.8906504746355028e+00 3.1327483639398107e-02 0.0000000000000000e+00  1.6330208774306559e-01 -1.0290079176966026e-01 0.0000000000000000e+00  1.4126399115657517e+00 -8.7120504404306895e-02 0.0000000000000000e+00  1.9573318677398146e+00 8.6118679334206083e-02 0.0000000000000000e+00  1.8105790443717960e+00 4.6211912323882089e-02 0.0000000000000000e+00  4.5007803090759135e-01 2.3635740496009644e-01 0.0000000000000000e+00  1.5319067497367887e-02 -2.5690221897216130e-02 0.0000000000000000e+00  3.9473266620783970e-01 1.4122040705071195e-01 0.0000000000000000e+00  5.0896900076573631e-02 -2.7731924803635007e-02 0.0000000000000000e+00  1.5888641810771089e+00 5.6411444098455110e-02 0.0000000000000000e+00  1.1386333058848865e+00 -3.0976268044940553e-01 0.0000000000000000e+00  1.1676105290626272e-01 3.1893237214177111e-02 0.0000000000000000e+00  9.3323211359919434e-01 3.1469753270578815e-01 0.0000000000000000e+00  1.6351822249223915e+00 1.2361803117575428e-01 0.0000000000000000e+00  9.7133193153497632e-01 3.8089246750536615e-01 0.0000000000000000e+00  5.8091037618080621e-01 -3.4872320593005407e-01 0.0000000000000000e+00  1.5499052031559077e+00 1.4379964324788921e-01 0.0000000000000000e+00  1.3017167359115367e+00 2.3517019734910771e-01 0.0000000000000000e+00  6.9502275082302967e-01 3.7019135123312852e-01 0.0000000000000000e+00  1.7972130838990002e-02 -3.5459372811601511e-02 0.0000000000000000e+00  1.5011533705120197e+00 3.6661279646376180e-02 0.0000000000000000e+00  1.7096410295540883e+00 -1.3660177669475326e-01 0.0000000000000000e+00  1.0164398435473385e-01 1.2201975198633657e-02 0.0000000000000000e+00  6.1278950477588101e-01 -4.1854595299223463e-01 0.0000000000000000e+00  8.6759655689151904e-01 -4.6079191988345275e-01 0.0000000000000000e+00  1.8264793618702233e+00 -2.4113521952787837e-02 0.0000000000000000e+00  2.1127424761695873e-01 1.0292025199636508e-01 0.0000000000000000e+00  1.5512208255310975e-01 -1.7913314471943395e-01 0.0000000000000000e+00  1.9171274173008377e+00 9.9344243718914760e-02 0.0000000000000000e+00  1.2144239434284092e+00 2.6642081269746037e-01 0.0000000000000000e+00  5.3760644569789899e-02 -8.6200331854642182e-02 0.0000000000000000e+00  1.7717974990184884e-01 -1.0767566982784869e-01 0.0000000000000000e+00  1.2925536607601413e+00 2.5540627758334700e-01 0.0000000000000000e+00  1.2978166918467722e+00 2.2698031496825352e-01 0.0000000000000000e+00  1.4219248088169771e+00 2.1037731702985868e-01 0.0000000000000000e+00  8.8563399245396579e-01 -4.7882586448032405e-01 0.0000000000000000e+00  1.7578453074429565e+00 8.2793007527335899e-02 0.0000000000000000e+00  7.8264455431020596e-01 -4.8603807766563611e-01 0.0000000000000000e+00  3.2879815316101130e-01 1.4151548382114537e-01 0.0000000000000000e+00  3.5315967952789845e-01 -2.7065388500745419e-01 0.0000000000000000e+00  1.1913583462868398e+00 2.1775477694135287e-01 0.0000000000000000e+00  1.1257232711976000e+00 -3.7073000768922665e-01 0.0000000000000000e+00  7.0887460935377278e-01 3.1498679423722242e-01 0.0000000000000000e+00  1.8779005423827466e+00 -1.3414225187339240e-01 0.0000000000000000e+00  1.9022576889194698e-01