<?xml version="1.0"?>
<VTKFile type="UnstructuredGrid"  version="0.1"  >
<UnstructuredGrid>
<Piece  NumberOfPoints="2868" NumberOfCells="5400">
<Points>
<DataArray  type="Float64"  NumberOfComponents="3"  format="ascii">0.534923 0.326073 0  0.510642 0.314196 0  0.466125 0.293082 0  0.436448 0.281205 0  0.409468 0.275927 0  0.368998 0.270648 0  0.35281 0.275927 0  0.381139 0.302319 0  0.405421 0.326073 0  0.410817 0.33531 0  0.408119 0.349826 0  0.400025 0.357744 0  0.375743 0.368301 0  0.329878 0.392055 0  0.297502 0.432963 0  0.282663 0.476511 0  0.285361 0.524018 0  0.298851 0.572845 0  0.317737 0.6045160000000001 0  0.337972 0.6361869999999999 0  0.360904 0.674457 0  0.368998 0.69953 0  0.359555 0.7219640000000001 0  0.360904 0.757594 0  0.370347 0.766831 0  0.381139 0.762872 0  0.390582 0.741758 0  0.404072 0.720644 0  0.424307 0.707448 0  0.447239 0.702169 0  0.480964 0.704808 0  0.479615 0.6889729999999999 0  0.468823 0.675776 0  0.447239 0.6691780000000001 0  0.428354 0.6691780000000001 0  0.410817 0.6639 0  0.404072 0.653343 0  0.395978 0.628269 0  0.387884 0.59132 0  0.389233 0.576804 0  0.397327 0.557009 0  0.410817 0.547772 0  0.424307 0.546452 0  0.437797 0.55305 0  0.44589 0.5662469999999999 0  0.441843 0.582082 0  0.439145 0.5979179999999999 0  0.449937 0.609795 0  0.468823 0.603196 0  0.479615 0.59 0  0.489058 0.570205 0  0.494454 0.546452 0  0.505246 0.522699 0  0.522783 0.509502 0  0.55246 0.494986 0  0.586185 0.484429 0  0.615863 0.48047 0  0.64554 0.473872 0  0.6671240000000001 0.461995 0  0.683312 0.451438 0  0.696802 0.435603 0  0.703547 0.417128 0  0.7116400000000001 0.393374 0  0.7183850000000001 0.37226 0  0.7251300000000001 0.364342 0  0.739969 0.353785 0  0.7453650000000001 0.344548 0  0.7453650000000001 0.327393 0  0.737271 0.318155 0  0.7183850000000001 0.316835 0  0.7008490000000001 0.319475 0  0.677916 0.318155 0  0.650936 0.316835 0  0.610467 0.318155 0  0.57944 0.324753 0  0.559205 0.328712 0  0.5389699999999999 0.326073 0  1 1 0  1 0 0  0 0 0  0 1 0  0.532238 0.32476 0  0.528748 0.323052 0  0.52421 0.320833 0  0.518311 0.317947 0  0.503447 0.310783 0  0.494093 0.306347 0  0.481933 0.30058 0  0.452151 0.28749 0  0.392327 0.273691 0  0.379141 0.271971 0  0.360474 0.283066 0  0.369797 0.291752 0  0.391424 0.31238 0  0.399335 0.32012 0  0.40958 0.341964 0  0.393939 0.36039 0  0.386028 0.36383 0  0.364248 0.374254 0  0.349304 0.381994 0  0.315801 0.409841 0  0.292986 0.551616 0  0.350934 0.657818 0  0.360127 0.737055 0  0.360566 0.748664 0  0.385245 0.753692 0  0.396447 0.732578 0  0.466301 0.703661 0  0.459439 0.672908 0  0.418442 0.666195 0  0.400553 0.642441 0  0.39255 0.612619 0  0.389913 0.60058 0  0.392752 0.568197 0  0.444131 0.573132 0  0.458149 0.606926 0  0.5005540000000001 0.533026 0  0.571522 0.489019 0  0.632637 0.476741 0  0.689177 0.444553 0  0.708121 0.403702 0  0.715453 0.38144 0  0.732406 0.359166 0  0.7453650000000001 0.337089 0  0.72906 0.317581 0  0.629879 0.317522 0  0.59293 0.321884 0  0.568003 0.326991 0  0.55202 0.327775 0  0.546493 0.327054 0  0.542241 0.326499 0  1 0.9 0  1 0.8 0  1 0.7 0  1 0.6 0  1 0.5 0  1 0.4 0  1 0.3 0  1 0.2 0  1 0.1 0  0.9 0 0  0.8 0 0  0.7 0 0  0.6 0 0  0.5 0 0  0.4 0 0  0.3 0 0  0.2 0 0  0.1 0 0  0.1 1 0  0.2 1 0  0.3 1 0  0.4 1 0  0.5 1 0  0.6 1 0  0.7 1 0  0.8 1 0  0.9 1 0  0 0.1 0  0 0.2 0  0 0.3 0  0 0.4 0  0 0.5 0  0 0.6 0  0 0.7 0  0 0.8 0  0 0.9 0  0.535686 0.5031910000000001 0  0.753987 0.733359 0  0.167145 0.741436 0  0.173378 0.257204 0  0.733497 0.159862 0  0.554096 0.15788 0  0.849187 0.479053 0  0.488793 0.838452 0  0.138507 0.5592 0  0.30686 0.154944 0  0.348904 0.890523 0  0.058006 0.065099 0  0.06984899999999999 0.937917 0  0.93633 0.939704 0  0.934625 0.053613 0  0.343397 0.333452 0  0.473272 0.639943 0  0.433266 0.638072 0  0.415174 0.58269 0  0.533435 0.545042 0  0.390848 0.340652 0  0.53655 0.320242 0  0.127966 0.393775 0  0.83861 0.850455 0  0.635242 0.8551299999999999 0  0.852158 0.633441 0  0.653427 0.626848 0  0.861226 0.24292 0  0.166128 0.12976 0  0.216875 0.8698709999999999 0  0.458305 0.11179 0  0.84446 0.101633 0  0.202024 0.642528 0  0.644825 0.115855 0  0.671342 0.218358 0  0.251354 0.286186 0  0.262388 0.75153 0  0.063044 0.751571 0  0.068189 0.242962 0  0.435781 0.9053949999999999 0  0.934144 0.451133 0  0.568393 0.237622 0  0.814984 0.395506 0  0.752951 0.517227 0  0.456254 0.780699 0  0.073352 0.531116 0  0.337731 0.206071 0  0.363213 0.960371 0  0.330742 0.363592 0  0.516613 0.55705 0  0.369057 0.332992 0  0.500926 0.617309 0  0.498004 0.665534 0  0.412142 0.61178 0  0.454233 0.6366039999999999 0  0.422782 0.567496 0  0.541193 0.5214800000000001 0  0.439761 0.65557 0  0.5163 0.533672 0  0.414775 0.64562 0  0.40073 0.576135 0  0.430362 0.5880339999999999 0  0.385432 0.351492 0  0.400298 0.335397 0  0.398325 0.348194 0  0.528702 0.314885 0  0.540814 0.322334 0  0.534477 0.322953 0  0.619095 0.743583 0  0.885162 0.737972 0  0.08076 0.668849 0  0.90734 0.36634 0  0.09468699999999999 0.868937 0  0.759838 0.912152 0  0.901518 0.540898 0  0.747285 0.607479 0  0.229182 0.071641 0  0.06915399999999999 0.450091 0  0.244775 0.203309 0  0.076534 0.331755 0  0.897847 0.167826 0  0.578909 0.911415 0  0.07713299999999999 0.146341 0  0.477215 0.203448 0  0.922631 0.869341 0  0.517415 0.074785 0  0.297026 0.827793 0  0.7832710000000001 0.246505 0  0.74519 0.061079 0  0.36033 0.069068 0  0.210313 0.475228 0  0.859426 0.928758 0  0.5745479999999999 0.609182 0  0.243069 0.383398 0  0.283099 0.934598 0  0.417416 0.843141 0  0.643942 0.553164 0  0.112687 0.079336 0  0.281357 0.658386 0  0.765043 0.436177 0  0.611361 0.198486 0  0.234496 0.58911 0  0.206479 0.702638 0  0.679608 0.155818 0  0.62682 0.259978 0  0.690538 0.264164 0  0.448938 0.956308 0  0.808154 0.328403 0  0.379583 0.91913 0  0.308083 0.297769 0  0.312358 0.730249 0  0.563101 0.278576 0  0.435597 0.746198 0  0.385475 0.225229 0  0.572248 0.518034 0  0.357864 0.35422 0  0.497647 0.641694 0  0.458101 0.655768 0  0.360474 0.310727 0  0.467038 0.620139 0  0.47798 0.659909 0  0.41102 0.628072 0  0.48324 0.609015 0  0.427544 0.617941 0  0.388633 0.328253 0  0.405336 0.599404 0  0.408351 0.565178 0  0.42395 0.600985 0  0.431562 0.576523 0  0.424905 0.6551979999999999 0  0.398064 0.58782 0  0.427739 0.557934 0  0.5192909999999999 0.303443 0  0.53142 0.320293 0  0.5449000000000001 0.323642 0  0.537166 0.323513 0  0.153974 0.920841 0  0.9181859999999999 0.67343 0  0.759946 0.820588 0  0.5375259999999999 0.783091 0  0.816532 0.545843 0  0.813991 0.178083 0  0.836774 0.702023 0  0.149815 0.318856 0  0.662287 0.923338 0  0.680146 0.791192 0  0.708961 0.663172 0  0.9372779999999999 0.287318 0  0.574622 0.6881660000000001 0  0.5894740000000001 0.076262 0  0.502822 0.926683 0  0.222269 0.811068 0  0.380457 0.164786 0  0.15321 0.684154 0  0.458063 0.051413 0  0.161702 0.056026 0  0.199351 0.198818 0  0.298946 0.09553200000000001 0  0.902465 0.795949 0  0.121139 0.791477 0  0.906269 0.112287 0  0.056109 0.822332 0  0.512172 0.13237 0  0.940964 0.741805 0  0.888887 0.408777 0  0.354543 0.825964 0  0.808736 0.068638 0  0.068507 0.394071 0  0.719105 0.563843 0  0.247287 0.149664 0  0.293062 0.237128 0  0.240524 0.434997 0  0.141255 0.623289 0  0.945202 0.160621 0  0.502914 0.247629 0  0.144669 0.480811 0  0.665025 0.060817 0  0.728047 0.224344 0  0.861995 0.313312 0  0.200068 0.534235 0  0.253262 0.965623 0  0.893804 0.49307 0  0.604391 0.572456 0  0.947088 0.345347 0  0.439372 0.227307 0  0.629847 0.159823 0  0.273405 0.880181 0  0.302744 0.776823 0  0.781502 0.295365 0  0.275342 0.349602 0  0.7283849999999999 0.472798 0  0.229136 0.246478 0  0.807794 0.480346 0  0.709476 0.112786 0  0.275506 0.694991 0  0.771674 0.394419 0  0.449715 0.861802 0  0.419159 0.799696 0  0.674851 0.503139 0  0.280443 0.61016 0  0.572443 0.192538 0  0.393113 0.87525 0  0.405555 0.948428 0  0.330942 0.934103 0  0.540509 0.597101 0  0.312763 0.6689310000000001 0  0.254368 0.540179 0  0.595265 0.25915 0  0.606679 0.234099 0  0.657131 0.279138 0  0.722458 0.279478 0  0.333 0.308056 0  0.351529 0.246142 0  0.455714 0.7257940000000001 0  0.585239 0.295143 0  0.340062 0.72492 0  0.545593 0.293773 0  0.555449 0.545426 0  0.414311 0.737314 0  0.590854 0.502323 0  0.350507 0.368444 0  0.484423 0.625665 0  0.483899 0.674542 0  0.378137 0.317274 0  0.446416 0.646404 0  0.373532 0.347654 0  0.446876 0.619769 0  0.466106 0.666068 0  0.437545 0.609254 0  0.434988 0.565726 0  0.41462 0.656829 0  0.418803 0.556961 0  0.398425 0.327446 0  0.517803 0.310421 0  0.549516 0.322918 0  0.57701 0.842889 0  0.8291269999999999 0.773906 0  0.643235 0.684732 0  0.134281 0.207734 0  0.865997 0.055966 0  0.680959 0.723345 0  0.165229 0.8415550000000001 0  0.54558 0.959672 0  0.783726 0.656439 0  0.913315 0.595533 0  0.699439 0.860667 0  0.785839 0.125076 0  0.551673 0.037713 0  0.9200970000000001 0.223214 0  0.206406 0.299726 0  0.087064 0.596401 0  0.935644 0.394252 0  0.964557 0.252582 0  0.230124 0.928346 0  0.120579 0.271764 0  0.8572149999999999 0.524082 0  0.7670979999999999 0.5551469999999999 0  0.936094 0.507131 0  0.804064 0.59585 0  0.700565 0.608273 0  0.429773 0.174231 0  0.117746 0.727333 0  0.5389620000000001 0.730231 0  0.862761 0.359173 0  0.821444 0.284046 0  0.193552 0.35818 0  0.234923 0.505555 0  0.193209 0.421217 0  0.220144 0.755896 0  0.594015 0.131642 0  0.283813 0.195855 0  0.517519 0.213961 0  0.553509 0.639116 0  0.280391 0.378018 0  0.852183 0.436817 0  0.746983 0.197173 0  0.821806 0.221318 0  0.449853 0.828453 0  0.883758 0.453926 0  0.183484 0.589542 0  0.348384 0.129314 0  0.255254 0.838525 0  0.504849 0.798516 0  0.320344 0.863432 0  0.611669 0.525425 0  0.265864 0.804962 0  0.72056 0.521442 0  0.613372 0.6101220000000001 0  0.481262 0.881068 0  0.655778 0.191988 0  0.701921 0.196918 0  0.5658260000000001 0.5731810000000001 0  0.46914 0.240927 0  0.343219 0.173284 0  0.888786 0.278502 0  0.244113 0.6750930000000001 0  0.739546 0.417914 0  0.784023 0.355942 0  0.326805 0.265549 0  0.248616 0.6
[...]
<PointData  Vectors="f_21"> 
<DataArray  type="Float64"  Name="f_21"  NumberOfComponents="3" format="ascii">1.4533528955462582e+00 4.4278249204639236e-01 0.0000000000000000e+00  1.3970526553127278e+00 4.7363974146724130e-01 0.0000000000000000e+00  1.2235656257745529e+00 5.1819466456181751e-01 0.0000000000000000e+00  1.0722399149335931e+00 5.2691088448731593e-01 0.0000000000000000e+00  9.3045424823099521e-01 5.1347224906392674e-01 0.0000000000000000e+00  6.9431075381014051e-01 4.8112181356259925e-01 0.0000000000000000e+00  5.5409563710309806e-01 4.4147366804867838e-01 0.0000000000000000e+00  3.8772076863960525e-01 5.5749157917653291e-01 0.0000000000000000e+00  2.9478638740438179e-01 6.4781593905852575e-01 0.0000000000000000e+00  2.5860133883813657e-01 6.6916552321940115e-01 0.0000000000000000e+00  2.0098276140963411e-01 6.5859166605280839e-01 0.0000000000000000e+00  1.6905736361633791e-01 6.2608230302732304e-01 0.0000000000000000e+00  1.2719099828436856e-01 5.2473154994954396e-01 0.0000000000000000e+00  5.6210491729861874e-02 3.2012541185360072e-01 0.0000000000000000e+00  -1.5927886512715921e-02 1.5789542377281005e-01 0.0000000000000000e+00  -4.9248753225442025e-02 3.2902543753002125e-02 0.0000000000000000e+00  -4.7354811065318823e-02 -8.3608886168047139e-02 0.0000000000000000e+00  -1.8754546953915693e-02 -2.1103295386875295e-01 0.0000000000000000e+00  2.5703398122082076e-02 -3.2525814229835842e-01 0.0000000000000000e+00  9.5400144651360083e-02 -4.4379284112283385e-01 0.0000000000000000e+00  2.1832684326441645e-01 -5.8314374186691464e-01 0.0000000000000000e+00  3.1926411653124748e-01 -6.3688729196667726e-01 0.0000000000000000e+00  4.1647827986875730e-01 -6.2587305433970242e-01 0.0000000000000000e+00  7.1013819167041847e-01 -6.9684593953464313e-01 0.0000000000000000e+00  9.5190537987629076e-01 -7.8012341362709314e-01 0.0000000000000000e+00  1.1516876007491237e+00 -8.0661101726938000e-01 0.0000000000000000e+00  1.4615365749793499e+00 -8.0501615801838367e-01 0.0000000000000000e+00  1.6202845882004582e+00 -7.4147965688043904e-01 0.0000000000000000e+00  1.6917950864232008e+00 -6.6554372625298341e-01 0.0000000000000000e+00  1.7287816598844929e+00 -6.0753389089991372e-01 0.0000000000000000e+00  1.8398763797612048e+00 -6.0578341562687077e-01 0.0000000000000000e+00  2.0202801935352075e+00 -6.5001851406694144e-01 0.0000000000000000e+00  2.1138522078371338e+00 -7.1000042835909349e-01 0.0000000000000000e+00  2.1495157241332623e+00 -8.2282397868541779e-01 0.0000000000000000e+00  2.1460423398126833e+00 -9.3028417298768984e-01 0.0000000000000000e+00  2.1750631579076654e+00 -1.0324537923849879e+00 0.0000000000000000e+00  2.2353302485004636e+00 -1.0720348044728019e+00 0.0000000000000000e+00  2.3799882601098732e+00 -1.1234937648137107e+00 0.0000000000000000e+00  2.6041525412258131e+00 -1.1785811288919792e+00 0.0000000000000000e+00  2.6940150928023039e+00 -1.1710874214023916e+00 0.0000000000000000e+00  2.8166749252604664e+00 -1.1216801504644802e+00 0.0000000000000000e+00  2.8739037207025921e+00 -1.0385421907512369e+00 0.0000000000000000e+00  2.8821600820962061e+00 -9.5528188921386137e-01 0.0000000000000000e+00  2.8414633820600126e+00 -8.7183912811845055e-01 0.0000000000000000e+00  2.7596179433421226e+00 -8.2150733957012700e-01 0.0000000000000000e+00  2.6607040747442583e+00 -8.4665358930469237e-01 0.0000000000000000e+00  2.5598952617156425e+00 -8.6489044572063789e-01 0.0000000000000000e+00  2.4781951553883883e+00 -8.0235621480010588e-01 0.0000000000000000e+00  2.4955704785978976e+00 -6.9437848895537924e-01 0.0000000000000000e+00  2.5429383052163992e+00 -6.3295350971156428e-01 0.0000000000000000e+00  2.6112308363847951e+00 -5.7987488457410241e-01 0.0000000000000000e+00  2.6897970972365322e+00 -5.4961807951548836e-01 0.0000000000000000e+00  2.7674302414586962e+00 -5.0696876293795623e-01 0.0000000000000000e+00  2.8093354100825292e+00 -4.4359293890794488e-01 0.0000000000000000e+00  2.8499808139053457e+00 -3.3738423576226978e-01 0.0000000000000000e+00  2.8710734594879539e+00 -2.2180653229991606e-01 0.0000000000000000e+00  2.8663644100785932e+00 -1.2410093512135924e-01 0.0000000000000000e+00  2.8575856945229092e+00 -2.3833433553512709e-02 0.0000000000000000e+00  2.8530687346775379e+00 5.0942508235119213e-02 0.0000000000000000e+00  2.8384535143346170e+00 1.1760094370689883e-01 0.0000000000000000e+00  2.8097461183563426e+00 1.8555029348707122e-01 0.0000000000000000e+00  2.7622211785909729e+00 2.3825971513026079e-01 0.0000000000000000e+00  2.6918620360496295e+00 2.8532724690431033e-01 0.0000000000000000e+00  2.6212080843868764e+00 3.0525916139872727e-01 0.0000000000000000e+00  2.5969699502925039e+00 3.0154420773827617e-01 0.0000000000000000e+00  2.5434334353599937e+00 3.1185140054800159e-01 0.0000000000000000e+00  2.4698010701561044e+00 3.2835489652557776e-01 0.0000000000000000e+00  2.2880621188416606e+00 3.5554321337848582e-01 0.0000000000000000e+00  2.1377679879960270e+00 3.7667711582782648e-01 0.0000000000000000e+00  1.9917511375118273e+00 3.7640401483302971e-01 0.0000000000000000e+00  1.9136062400554761e+00 3.7706580615022384e-01 0.0000000000000000e+00  1.8314746164377027e+00 3.9324048484454166e-01 0.0000000000000000e+00  1.7291916177636097e+00 4.1154555730674641e-01 0.0000000000000000e+00  1.5881604860006497e+00 4.2581589488263316e-01 0.0000000000000000e+00  1.5063135319288226e+00 4.2355247526142631e-01 0.0000000000000000e+00  1.4789752911972043e+00 4.2571044545441183e-01 0.0000000000000000e+00  1.4562797148532021e+00 4.3914399112348468e-01 0.0000000000000000e+00  1.8029995185174257e+00 3.9406860956951034e-01 0.0000000000000000e+00  1.5919011965285743e+00 -1.3924040319156300e-01 0.0000000000000000e+00  0.0000000000000000e+00 0.0000000000000000e+00 0.0000000000000000e+00  0.0000000000000000e+00 0.0000000000000000e+00 0.0000000000000000e+00  1.4497157916724719e+00 4.4619494582149793e-01 0.0000000000000000e+00  1.4433165261214320e+00 4.5069173583496919e-01 0.0000000000000000e+00  1.4334354189515275e+00 4.5651980883843818e-01 0.0000000000000000e+00  1.4188605926380402e+00 4.6411537272312420e-01 0.0000000000000000e+00  1.3745528886383547e+00 4.8200175027639025e-01 0.0000000000000000e+00  1.3421395911229084e+00 4.9266194900839433e-01 0.0000000000000000e+00  1.2953679185627580e+00 5.0479350893256214e-01 0.0000000000000000e+00  1.1571456106329669e+00 5.2506366064771015e-01 0.0000000000000000e+00  8.4243915805832303e-01 4.9918556404854308e-01 0.0000000000000000e+00  7.6925542810677827e-01 4.8934355982193484e-01 0.0000000000000000e+00  4.8586700785233378e-01 4.8467534410983132e-01 0.0000000000000000e+00  4.3488636393266250e-01 5.1831626162619882e-01 0.0000000000000000e+00  3.4762543122643069e-01 5.9416516999679192e-01 0.0000000000000000e+00  3.1781094751784600e-01 6.2412917431412029e-01 0.0000000000000000e+00  2.3232477022181228e-01 6.6434791382384850e-01 0.0000000000000000e+00  1.5831094207415239e-01 6.0122360861579616e-01 0.0000000000000000e+00  1.4446503444131625e-01 5.6840937946070413e-01 0.0000000000000000e+00  1.0566903813403161e-01 4.7470645022084634e-01 0.0000000000000000e+00  8.1163596568817151e-02 4.0882907831155002e-01 0.0000000000000000e+00  1.9272334668724449e-02 2.4997366793721343e-01 0.0000000000000000e+00  -3.3912596234964176e-02 -1.5281206485061977e-01 0.0000000000000000e+00  1.5874510291854235e-01 -5.2313572822433940e-01 0.0000000000000000e+00  5.0737340998361635e-01 -6.6025719318572396e-01 0.0000000000000000e+00  6.0178767936733790e-01 -6.8643173576222838e-01 0.0000000000000000e+00  1.3285415591372163e+00 -8.2201806820897516e-01 0.0000000000000000e+00  1.5404305004415482e+00 -7.7669709219180560e-01 0.0000000000000000e+00  1.7641708076884277e+00 -5.8620352407993093e-01 0.0000000000000000e+00  2.1309314729843511e+00 -7.5735033752592218e-01 0.0000000000000000e+00  2.1621811683866206e+00 -9.8797390542260555e-01 0.0000000000000000e+00  2.2975972817363481e+00 -1.0937884062138039e+00 0.0000000000000000e+00  2.4732373762936941e+00 -1.1470504817683169e+00 0.0000000000000000e+00  2.5468936551446300e+00 -1.1651402289604116e+00 0.0000000000000000e+00  2.7473647090136857e+00 -1.1496942641175041e+00 0.0000000000000000e+00  2.7167318369840459e+00 -8.3239741134647138e-01 0.0000000000000000e+00  2.4861714889860123e+00 -7.5514764643931553e-01 0.0000000000000000e+00  2.7334435480317194e+00 -5.2491901748790004e-01 0.0000000000000000e+00  2.8625507829751884e+00 -2.7132577938544161e-01 0.0000000000000000e+00  2.8634707951500302e+00 -6.8486725116757588e-02 0.0000000000000000e+00  2.8278206197822451e+00 1.4826206663018243e-01 0.0000000000000000e+00  2.7241343939016134e+00 2.6749990494323445e-01 0.0000000000000000e+00  2.6515277852529100e+00 3.0043039566908381e-01 0.0000000000000000e+00  2.5747067339068259e+00 3.0282359842126017e-01 0.0000000000000000e+00  2.3985842672038795e+00 3.5360081533735233e-01 0.0000000000000000e+00  2.0643967899047304e+00 3.7411892929176493e-01 0.0000000000000000e+00  1.6532671010115856e+00 4.1931908544334318e-01 0.0000000000000000e+00  1.5354903670811295e+00 4.2465993956019493e-01 0.0000000000000000e+00  1.4882235885679118e+00 4.2384272401358514e-01 0.0000000000000000e+00  1.4720309471252184e+00 4.2952232122316014e-01 0.0000000000000000e+00  1.4654148992041163e+00 4.3335756112504281e-01 0.0000000000000000e+00  1.4602177124518567e+00 4.3651901739912141e-01 0.0000000000000000e+00  2.0295298370842789e+00 4.2591451492403859e-01 0.0000000000000000e+00  2.2905571675513303e+00 4.4136408536398153e-01 0.0000000000000000e+00  2.5768380339960379e+00 4.0589647855225541e-01 0.0000000000000000e+00  2.8236605415314933e+00 2.9009304415160964e-01 0.0000000000000000e+00  2.9204838886594691e+00 8.5383545407375597e-02 0.0000000000000000e+00  2.7939458370520187e+00 -1.2494290792577391e-01 0.0000000000000000e+00  2.4748575320312263e+00 -2.5038304329903988e-01 0.0000000000000000e+00  2.1172747723103140e+00 -2.4285062237775495e-01 0.0000000000000000e+00  1.8344018801848001e+00 -1.8160633617330316e-01 0.0000000000000000e+00  1.4977072983962150e+00 1.1156175987920315e-01 0.0000000000000000e+00  1.4074591901643372e+00 3.3929881628997172e-01 0.0000000000000000e+00  1.3078901005326427e+00 5.2021795344249666e-01 0.0000000000000000e+00  1.2025546279846264e+00 6.5522506298956618e-01 0.0000000000000000e+00  1.1021168158378452e+00 7.0837437709209039e-01 0.0000000000000000e+00  9.9425634294703513e-01 6.5387069079875793e-01 0.0000000000000000e+00  8.3531285032626612e-01 5.0452004129667172e-01 0.0000000000000000e+00  6.0582452687019517e-01 3.2120214270136527e-01 0.0000000000000000e+00  3.2566978919567163e-01 1.7260744341291007e-01 0.0000000000000000e+00  3.8641869673170359e-01 -2.1352476067416620e-01 0.0000000000000000e+00  7.0308508702781136e-01 -4.2017093149185009e-01 0.0000000000000000e+00  9.3095373932471726e-01 -6.7533049861103567e-01 0.0000000000000000e+00  1.0248383181349738e+00 -8.1855516366976055e-01 0.0000000000000000e+00  1.0929567734129895e+00 -7.1959771724124755e-01 0.0000000000000000e+00  1.2353824141512681e+00 -4.8686321963540102e-01 0.0000000000000000e+00  1.4181184253471846e+00 -2.4877430198746886e-01 0.0000000000000000e+00  1.5818121278191319e+00 -3.2889490662477781e-02 0.0000000000000000e+00  1.7069082166033245e+00 1.7810497716706186e-01 0.0000000000000000e+00  0.0000000000000000e+00 0.0000000000000000e+00 0.0000000000000000e+00  0.0000000000000000e+00 0.0000000000000000e+00 0.0000000000000000e+00  0.0000000000000000e+00 0.0000000000000000e+00 0.0000000000000000e+00  0.0000000000000000e+00 0.0000000000000000e+00 0.0000000000000000e+00  0.0000000000000000e+00 0.0000000000000000e+00 0.0000000000000000e+00  0.0000000000000000e+00 0.0000000000000000e+00 0.0000000000000000e+00  0.0000000000000000e+00 0.0000000000000000e+00 0.0000000000000000e+00  0.0000000000000000e+00 0.0000000000000000e+00 0.0000000000000000e+00  0.0000000000000000e+00 0.0000000000000000e+00 0.0000000000000000e+00  2.8276240389631764e+00 -3.9707473991227432e-01 0.0000000000000000e+00  2.2277327045299922e+00 2.0692140232650810e-02 0.0000000000000000e+00  2.1819481763196236e-01 -7.7108618399005818e-02 0.0000000000000000e+00  2.4480648015795961e-01 5.2899973316432272e-02 0.0000000000000000e+00  1.6348602995799322e+00 4.1568597630630066e-01 0.0000000000000000e+00  1.2685539881798980e+00 5.9916559420318571e-01 0.0000000000000000e+00  2.8564241990734494e+00 1.3344158507456036e-01 0.0000000000000000e+00  1.3269499964667937e+00 -6.3875104098839297e-01 0.0000000000000000e+00  -2.3320459140299083e-02 -4.1318123772899271e-03 0.0000000000000000e+00  6.9405546494766457e-01 4.1167901957396807e-01 0.0000000000000000e+00  9.2748805527913725e-01 -7.1922432108797818e-01 0.0000000000000000e+00  1.4269382079072335e-01 5.7461235620826293e-02 0.0000000000000000e+00  2.0036016545969026e-01 -9.3320176480769179e-02 0.0000000000000000e+00  1.8768751093057681e+00 2.7325750827267781e-01 0.0000000000000000e+00  1.6575526572538510e+00 6.3774049909922420e-03 0.0000000000000000e+00  2.5496970726631935e-01 3.9525052397147686e-01 0.0000000000000000e+00  2.3127627273978408e+00 -6.7789633000757787e-01 0.0000000000000000e+00  2.3215437901554008e+00 -9.0057402317325852e-01 0.0000000000000000e+00  2.6568305681870044e+00 -1.0116715306273822e+00 0.0000000000000000e+00  2.6930389381961843e+00 -4.0677640914800800e-01 0.0000000000000000e+00  2.3715395872224568e-01 5.8935835794467473e-01 0.0000000000000000e+00  1.4456103170023329e+00 4.4307931848558979e-01 0.0000000000000000e+00  1.8722961214824470e-02 -2.8971109174236107e-02 0.0000000000000000e+00  1.9944639437237037e+00 1.0109631027802152e-01 0.0000000000000000e+00  1.6413723248593524e+00 -2.9697053675975332e-01 0.0000000000000000e+00  2.6509837087390311e+00 1.5919469827477226e-01 0.0000000000000000e+00  2.4570937474609731e+00 -7.2029940603163270e-02 0.0000000000000000e+00  2.1022371093488306e+00 1.0924681396462579e-01 0.0000000000000000e+00  3.7299934225174586e-01 1.4972797491691744e-01 0.0000000000000000e+00  5.4744587944798007e-01 -3.2946648465733314e-01 0.0000000000000000e+00  1.0369684473835565e+00 6.4623256474752633e-01 0.0000000000000000e+00  1.6672393052979617e+00 2.1006816370606149e-01 0.0000000000000000e+00  7.0346155323053106e-02 -6.9145189195265758e-02 0.0000000000000000e+00  1.4051310941652644e+00 5.5319594638677949e-01 0.0000000000000000e+00  1.6379433560785395e+00 4.7845708025607903e-01 0.0000000000000000e+00  3.2089071100439015e-01 1.5368601154468486e-01 0.0000000000000000e+00  4.2531319933452599e-01 -2.8060189238417665e-01 0.0000000000000000e+00  7.6675789867931582e-02 8.9557943962198204e-03 0.0000000000000000e+00  9.2353455187572875e-02 -1.5993257414146467e-02 0.0000000000000000e+00  1.1030409117089797e+00 -7.6923661604726934e-01 0.0000000000000000e+00  2.8632869775542624e+00 4.8960191210010669e-02 0.0000000000000000e+00  1.4030148370972633e+00 5.1279777807553417e-01 0.0000000000000000e+00  2.7076545853530147e+00 1.4522587473742038e-01 0.0000000000000000e+00  2.8020843314647190e+00 1.4808483642644085e-01 0.0000000000000000e+00  1.3983227304393919e+00 -6.4804656021947282e-01 0.0000000000000000e+00  -1.3511579848783092e-02 2.0177114884961903e-03 0.0000000000000000e+00  7.2265123628795669e-01 4.4855304119969946e-01 0.0000000000000000e+00  9.6964990740522927e-01 -7.6931409776484838e-01 0.0000000000000000e+00  1.4683297013159194e-01 3.3424511898454956e-01 0.0000000000000000e+00  2.6551577090777263e+00 -4.7056062414220196e-01 0.0000000000000000e+00  2.6402237290381214e-01 5.0168340199993444e-01 0.0000000000000000e+00  2.4252389574734150e+00 -5.4121796075582385e-01 0.0000000000000000e+00  2.1756201388735064e+00 -5.5134370733318072e-01 0.0000000000000000e+00  2.4769336785468719e+00 -1.0282960881407708e+00 0.0000000000000000e+00  2.3294059566896026e+00 -7.7990766963396196e-01 0.0000000000000000e+00  2.7516982944681572e+00 -9.6480685005761491e-01 0.0000000000000000e+00  2.7675878659393756e+00 -3.7731075609185033e-01 0.0000000000000000e+00  2.2240636372668421e+00 -8.6396819298985872e-01 0.0000000000000000e+00  2.7310334150062450e+00 -4.6839501479547130e-01 0.0000000000000000e+00  2.2792358020893957e+00 -1.0097752657628059e+00 0.0000000000000000e+00  2.6979706273407333e+00 -1.1003290650813253e+00 0.0000000000000000e+00  2.6229740289187951e+00 -9.1851946377588412e-01 0.0000000000000000e+00  1.9419957447972139e-01 5.6631578160394880e-01 0.0000000000000000e+00  2.5822000561878389e-01 6.2751522989691932e-01 0.0000000000000000e+00  2.0750122058463483e-01 6.1930596369963997e-01 0.0000000000000000e+00  1.4247176110455793e+00 4.5305260169378742e-01 0.0000000000000000e+00  1.4536979704882469e+00 4.3899686586101005e-01 0.0000000000000000e+00  1.4480197665274510e+00 4.4397936792202519e-01 0.0000000000000000e+00  1.9624958160986818e+00 -2.2908267735939622e-01 0.0000000000000000e+00  2.3756172638276940e+00 1.9734251565611177e-01 0.0000000000000000e+00  4.2802955123528059e-02 1.9189827031582004e-02 0.0000000000000000e+00  2.6475556308599253e+00 1.1721662028581393e-02 0.0000000000000000e+00  2.1605799786670501e-01 -7.8103960119406193e-02 0.0000000000000000e+00  1.7228293567797337e+00 -7.1600794198654588e-02 0.0000000000000000e+00  2.8613231777224328e+00 1.4682221299580062e-01 0.0000000000000000e+00  2.6134171220234594e+00 8.6023868663923114e-02 0.0000000000000000e+00  5.8384413139982239e-01 3.1533484978464166e-01 0.0000000000000000e+00  -7.7101940850552633e-03 -2.0213173145072427e-02 0.0000000000000000e+00  4.8212379875550637e-01 2.2480079622988960e-01 0.0000000000000000e+00  4.8615717405922368e-02 -3.5246155031027994e-02 0.0000000000000000e+00  1.9059792312987798e+00 5.5517264164516217e-02 0.0000000000000000e+00  1.3901142114199285e+00 -4.8174175601341135e-01 0.0000000000000000e+00  1.5347417422736520e-01 3.0400077029796684e-02 0.0000000000000000e+00  1.1038279327638905e+00 5.8924565315269450e-01 0.0000000000000000e+00  2.0351201111945021e+00 2.5852686513122108e-01 0.0000000000000000e+00  1.1397236233768047e+00 6.7060466263210816e-01 0.0000000000000000e+00  7.4395701512584622e-01 -5.1238360397551341e-01 0.0000000000000000e+00  1.9588679305477865e+00 2.8526361326550520e-01 0.0000000000000000e+00  1.4627300872837039e+00 4.2320192163266429e-01 0.0000000000000000e+00  8.6928090902577115e-01 5.6581886829222561e-01 0.0000000000000000e+00  -5.5821647877215663e-02 -8.7222408008362923e-03 0.0000000000000000e+00  1.8202592458353692e+00 1.1762188363173999e-01 0.0000000000000000e+00  2.4679718818532916e+00 -2.6800290521544923e-01 0.0000000000000000e+00  6.4519784634151367e-02 7.2961353756992184e-02 0.0000000000000000e+00  7.9728784726644319e-01 -5.8505747602414948e-01 0.0000000000000000e+00  1.1126076061844088e+00 -7.6190651165191825e-01 0.0000000000000000e+00  2.6730611212001381e+00 -5.3350484575899908e-02 0.0000000000000000e+00  2.7809523109376150e-01 1.1828879574696236e-01 0.0000000000000000e+00  1.4201651995699993e-01 -2.5178298025325019e-01 0.0000000000000000e+00  2.8038200622638429e+00 1.9392794192523174e-01 0.0000000000000000e+00  1.4604735509589979e+00 5.3127178898012828e-01 0.0000000000000000e+00  -7.8263193547886654e-03 -9.0458672800712736e-02 0.0000000000000000e+00  1.9508947033151397e-01 -1.1041693768845261e-01 0.0000000000000000e+00  1.5334569221516618e+00 4.9529791362046016e-01 0.0000000000000000e+00  1.5962056120958714e+00 4.7470027822674382e-01 0.0000000000000000e+00  1.7838346850154789e+00 4.3993120478704156e-01 0.0000000000000000e+00  1.0879000577257498e+00 -7.7555253850967398e-01 0.0000000000000000e+00  2.3986940643620889e+00 1.5755709471423940e-01 0.0000000000000000e+00  9.8974847580756176e-01 -7.7354046129655984e-01 0.0000000000000000e+00  3.6999750698007627e-01 2.8075812974813474e-01 0.0000000000000000e+00  4.2882636251524986e-01 -4.1144504598859399e-01 0.0000000000000000e+00  1.4441635646611222e+00 4.6735415357051280e-01 0.0000000000000000e+00  1.5098628500589271e+00 -6.4895780026052907e-01 0.0000000000000000e+00  8.3638468197378513e-01 5.3978283860438536e-01 0.0000000000000000e+00  2.7724520707050764e+00 -2.6732285089162672e-01 0.0000000000000000e+00  1.825393351405806