<?xml version="1.0"?>
<VTKFile type="UnstructuredGrid"  version="0.1"  >
<UnstructuredGrid>
<Piece  NumberOfPoints="2868" NumberOfCells="5400">
<Points>
<DataArray  type="Float64"  NumberOfComponents="3"  format="ascii">0.534923 0.326073 0  0.510642 0.314196 0  0.466125 0.293082 0  0.436448 0.281205 0  0.409468 0.275927 0  0.368998 0.270648 0  0.35281 0.275927 0  0.381139 0.302319 0  0.405421 0.326073 0  0.410817 0.33531 0  0.408119 0.349826 0  0.400025 0.357744 0  0.375743 0.368301 0  0.329878 0.392055 0  0.297502 0.432963 0  0.282663 0.476511 0  0.285361 0.524018 0  0.298851 0.572845 0  0.317737 0.6045160000000001 0  0.337972 0.6361869999999999 0  0.360904 0.674457 0  0.368998 0.69953 0  0.359555 0.7219640000000001 0  0.360904 0.757594 0  0.370347 0.766831 0  0.381139 0.762872 0  0.390582 0.741758 0  0.404072 0.720644 0  0.424307 0.707448 0  0.447239 0.702169 0  0.480964 0.704808 0  0.479615 0.6889729999999999 0  0.468823 0.675776 0  0.447239 0.6691780000000001 0  0.428354 0.6691780000000001 0  0.410817 0.6639 0  0.404072 0.653343 0  0.395978 0.628269 0  0.387884 0.59132 0  0.389233 0.576804 0  0.397327 0.557009 0  0.410817 0.547772 0  0.424307 0.546452 0  0.437797 0.55305 0  0.44589 0.5662469999999999 0  0.441843 0.582082 0  0.439145 0.5979179999999999 0  0.449937 0.609795 0  0.468823 0.603196 0  0.479615 0.59 0  0.489058 0.570205 0  0.494454 0.546452 0  0.505246 0.522699 0  0.522783 0.509502 0  0.55246 0.494986 0  0.586185 0.484429 0  0.615863 0.48047 0  0.64554 0.473872 0  0.6671240000000001 0.461995 0  0.683312 0.451438 0  0.696802 0.435603 0  0.703547 0.417128 0  0.7116400000000001 0.393374 0  0.7183850000000001 0.37226 0  0.7251300000000001 0.364342 0  0.739969 0.353785 0  0.7453650000000001 0.344548 0  0.7453650000000001 0.327393 0  0.737271 0.318155 0  0.7183850000000001 0.316835 0  0.7008490000000001 0.319475 0  0.677916 0.318155 0  0.650936 0.316835 0  0.610467 0.318155 0  0.57944 0.324753 0  0.559205 0.328712 0  0.5389699999999999 0.326073 0  1 1 0  1 0 0  0 0 0  0 1 0  0.532238 0.32476 0  0.528748 0.323052 0  0.52421 0.320833 0  0.518311 0.317947 0  0.503447 0.310783 0  0.494093 0.306347 0  0.481933 0.30058 0  0.452151 0.28749 0  0.392327 0.273691 0  0.379141 0.271971 0  0.360474 0.283066 0  0.369797 0.291752 0  0.391424 0.31238 0  0.399335 0.32012 0  0.40958 0.341964 0  0.393939 0.36039 0  0.386028 0.36383 0  0.364248 0.374254 0  0.349304 0.381994 0  0.315801 0.409841 0  0.292986 0.551616 0  0.350934 0.657818 0  0.360127 0.737055 0  0.360566 0.748664 0  0.385245 0.753692 0  0.396447 0.732578 0  0.466301 0.703661 0  0.459439 0.672908 0  0.418442 0.666195 0  0.400553 0.642441 0  0.39255 0.612619 0  0.389913 0.60058 0  0.392752 0.568197 0  0.444131 0.573132 0  0.458149 0.606926 0  0.5005540000000001 0.533026 0  0.571522 0.489019 0  0.632637 0.476741 0  0.689177 0.444553 0  0.708121 0.403702 0  0.715453 0.38144 0  0.732406 0.359166 0  0.7453650000000001 0.337089 0  0.72906 0.317581 0  0.629879 0.317522 0  0.59293 0.321884 0  0.568003 0.326991 0  0.55202 0.327775 0  0.546493 0.327054 0  0.542241 0.326499 0  1 0.9 0  1 0.8 0  1 0.7 0  1 0.6 0  1 0.5 0  1 0.4 0  1 0.3 0  1 0.2 0  1 0.1 0  0.9 0 0  0.8 0 0  0.7 0 0  0.6 0 0  0.5 0 0  0.4 0 0  0.3 0 0  0.2 0 0  0.1 0 0  0.1 1 0  0.2 1 0  0.3 1 0  0.4 1 0  0.5 1 0  0.6 1 0  0.7 1 0  0.8 1 0  0.9 1 0  0 0.1 0  0 0.2 0  0 0.3 0  0 0.4 0  0 0.5 0  0 0.6 0  0 0.7 0  0 0.8 0  0 0.9 0  0.535686 0.5031910000000001 0  0.753987 0.733359 0  0.167145 0.741436 0  0.173378 0.257204 0  0.733497 0.159862 0  0.554096 0.15788 0  0.849187 0.479053 0  0.488793 0.838452 0  0.138507 0.5592 0  0.30686 0.154944 0  0.348904 0.890523 0  0.058006 0.065099 0  0.06984899999999999 0.937917 0  0.93633 0.939704 0  0.934625 0.053613 0  0.343397 0.333452 0  0.473272 0.639943 0  0.433266 0.638072 0  0.415174 0.58269 0  0.533435 0.545042 0  0.390848 0.340652 0  0.53655 0.320242 0  0.127966 0.393775 0  0.83861 0.850455 0  0.635242 0.8551299999999999 0  0.852158 0.633441 0  0.653427 0.626848 0  0.861226 0.24292 0  0.166128 0.12976 0  0.216875 0.8698709999999999 0  0.458305 0.11179 0  0.84446 0.101633 0  0.202024 0.642528 0  0.644825 0.115855 0  0.671342 0.218358 0  0.251354 0.286186 0  0.262388 0.75153 0  0.063044 0.751571 0  0.068189 0.242962 0  0.435781 0.9053949999999999 0  0.934144 0.451133 0  0.568393 0.237622 0  0.814984 0.395506 0  0.752951 0.517227 0  0.456254 0.780699 0  0.073352 0.531116 0  0.337731 0.206071 0  0.363213 0.960371 0  0.330742 0.363592 0  0.516613 0.55705 0  0.369057 0.332992 0  0.500926 0.617309 0  0.498004 0.665534 0  0.412142 0.61178 0  0.454233 0.6366039999999999 0  0.422782 0.567496 0  0.541193 0.5214800000000001 0  0.439761 0.65557 0  0.5163 0.533672 0  0.414775 0.64562 0  0.40073 0.576135 0  0.430362 0.5880339999999999 0  0.385432 0.351492 0  0.400298 0.335397 0  0.398325 0.348194 0  0.528702 0.314885 0  0.540814 0.322334 0  0.534477 0.322953 0  0.619095 0.743583 0  0.885162 0.737972 0  0.08076 0.668849 0  0.90734 0.36634 0  0.09468699999999999 0.868937 0  0.759838 0.912152 0  0.901518 0.540898 0  0.747285 0.607479 0  0.229182 0.071641 0  0.06915399999999999 0.450091 0  0.244775 0.203309 0  0.076534 0.331755 0  0.897847 0.167826 0  0.578909 0.911415 0  0.07713299999999999 0.146341 0  0.477215 0.203448 0  0.922631 0.869341 0  0.517415 0.074785 0  0.297026 0.827793 0  0.7832710000000001 0.246505 0  0.74519 0.061079 0  0.36033 0.069068 0  0.210313 0.475228 0  0.859426 0.928758 0  0.5745479999999999 0.609182 0  0.243069 0.383398 0  0.283099 0.934598 0  0.417416 0.843141 0  0.643942 0.553164 0  0.112687 0.079336 0  0.281357 0.658386 0  0.765043 0.436177 0  0.611361 0.198486 0  0.234496 0.58911 0  0.206479 0.702638 0  0.679608 0.155818 0  0.62682 0.259978 0  0.690538 0.264164 0  0.448938 0.956308 0  0.808154 0.328403 0  0.379583 0.91913 0  0.308083 0.297769 0  0.312358 0.730249 0  0.563101 0.278576 0  0.435597 0.746198 0  0.385475 0.225229 0  0.572248 0.518034 0  0.357864 0.35422 0  0.497647 0.641694 0  0.458101 0.655768 0  0.360474 0.310727 0  0.467038 0.620139 0  0.47798 0.659909 0  0.41102 0.628072 0  0.48324 0.609015 0  0.427544 0.617941 0  0.388633 0.328253 0  0.405336 0.599404 0  0.408351 0.565178 0  0.42395 0.600985 0  0.431562 0.576523 0  0.424905 0.6551979999999999 0  0.398064 0.58782 0  0.427739 0.557934 0  0.5192909999999999 0.303443 0  0.53142 0.320293 0  0.5449000000000001 0.323642 0  0.537166 0.323513 0  0.153974 0.920841 0  0.9181859999999999 0.67343 0  0.759946 0.820588 0  0.5375259999999999 0.783091 0  0.816532 0.545843 0  0.813991 0.178083 0  0.836774 0.702023 0  0.149815 0.318856 0  0.662287 0.923338 0  0.680146 0.791192 0  0.708961 0.663172 0  0.9372779999999999 0.287318 0  0.574622 0.6881660000000001 0  0.5894740000000001 0.076262 0  0.502822 0.926683 0  0.222269 0.811068 0  0.380457 0.164786 0  0.15321 0.684154 0  0.458063 0.051413 0  0.161702 0.056026 0  0.199351 0.198818 0  0.298946 0.09553200000000001 0  0.902465 0.795949 0  0.121139 0.791477 0  0.906269 0.112287 0  0.056109 0.822332 0  0.512172 0.13237 0  0.940964 0.741805 0  0.888887 0.408777 0  0.354543 0.825964 0  0.808736 0.068638 0  0.068507 0.394071 0  0.719105 0.563843 0  0.247287 0.149664 0  0.293062 0.237128 0  0.240524 0.434997 0  0.141255 0.623289 0  0.945202 0.160621 0  0.502914 0.247629 0  0.144669 0.480811 0  0.665025 0.060817 0  0.728047 0.224344 0  0.861995 0.313312 0  0.200068 0.534235 0  0.253262 0.965623 0  0.893804 0.49307 0  0.604391 0.572456 0  0.947088 0.345347 0  0.439372 0.227307 0  0.629847 0.159823 0  0.273405 0.880181 0  0.302744 0.776823 0  0.781502 0.295365 0  0.275342 0.349602 0  0.7283849999999999 0.472798 0  0.229136 0.246478 0  0.807794 0.480346 0  0.709476 0.112786 0  0.275506 0.694991 0  0.771674 0.394419 0  0.449715 0.861802 0  0.419159 0.799696 0  0.674851 0.503139 0  0.280443 0.61016 0  0.572443 0.192538 0  0.393113 0.87525 0  0.405555 0.948428 0  0.330942 0.934103 0  0.540509 0.597101 0  0.312763 0.6689310000000001 0  0.254368 0.540179 0  0.595265 0.25915 0  0.606679 0.234099 0  0.657131 0.279138 0  0.722458 0.279478 0  0.333 0.308056 0  0.351529 0.246142 0  0.455714 0.7257940000000001 0  0.585239 0.295143 0  0.340062 0.72492 0  0.545593 0.293773 0  0.555449 0.545426 0  0.414311 0.737314 0  0.590854 0.502323 0  0.350507 0.368444 0  0.484423 0.625665 0  0.483899 0.674542 0  0.378137 0.317274 0  0.446416 0.646404 0  0.373532 0.347654 0  0.446876 0.619769 0  0.466106 0.666068 0  0.437545 0.609254 0  0.434988 0.565726 0  0.41462 0.656829 0  0.418803 0.556961 0  0.398425 0.327446 0  0.517803 0.310421 0  0.549516 0.322918 0  0.57701 0.842889 0  0.8291269999999999 0.773906 0  0.643235 0.684732 0  0.134281 0.207734 0  0.865997 0.055966 0  0.680959 0.723345 0  0.165229 0.8415550000000001 0  0.54558 0.959672 0  0.783726 0.656439 0  0.913315 0.595533 0  0.699439 0.860667 0  0.785839 0.125076 0  0.551673 0.037713 0  0.9200970000000001 0.223214 0  0.206406 0.299726 0  0.087064 0.596401 0  0.935644 0.394252 0  0.964557 0.252582 0  0.230124 0.928346 0  0.120579 0.271764 0  0.8572149999999999 0.524082 0  0.7670979999999999 0.5551469999999999 0  0.936094 0.507131 0  0.804064 0.59585 0  0.700565 0.608273 0  0.429773 0.174231 0  0.117746 0.727333 0  0.5389620000000001 0.730231 0  0.862761 0.359173 0  0.821444 0.284046 0  0.193552 0.35818 0  0.234923 0.505555 0  0.193209 0.421217 0  0.220144 0.755896 0  0.594015 0.131642 0  0.283813 0.195855 0  0.517519 0.213961 0  0.553509 0.639116 0  0.280391 0.378018 0  0.852183 0.436817 0  0.746983 0.197173 0  0.821806 0.221318 0  0.449853 0.828453 0  0.883758 0.453926 0  0.183484 0.589542 0  0.348384 0.129314 0  0.255254 0.838525 0  0.504849 0.798516 0  0.320344 0.863432 0  0.611669 0.525425 0  0.265864 0.804962 0  0.72056 0.521442 0  0.613372 0.6101220000000001 0  0.481262 0.881068 0  0.655778 0.191988 0  0.701921 0.196918 0  0.5658260000000001 0.5731810000000001 0  0.46914 0.240927 0  0.343219 0.173284 0  0.888786 0.278502 0  0.244113 0.6750930000000001 0  0.739546 0.417914 0  0.784023 0.355942 0  0.326805 0.265549 0  0.248616 0.6
[...]
<PointData  Vectors="f_21"> 
<DataArray  type="Float64"  Name="f_21"  NumberOfComponents="3" format="ascii">1.4659490100301582e+00 5.0580180196130919e-01 0.0000000000000000e+00  1.4098658716425272e+00 5.3138650146828414e-01 0.0000000000000000e+00  1.2372810723351759e+00 5.6107437392695558e-01 0.0000000000000000e+00  1.0868403611776054e+00 5.5889109634087220e-01 0.0000000000000000e+00  9.4422549674935063e-01 5.3560455693547671e-01 0.0000000000000000e+00  7.0693054806388234e-01 4.8964970404400376e-01 0.0000000000000000e+00  5.6450992691102453e-01 4.4456212897614555e-01 0.0000000000000000e+00  3.9173928276782743e-01 5.6417092175859174e-01 0.0000000000000000e+00  2.9429225353919525e-01 6.5767717020568428e-01 0.0000000000000000e+00  2.5687324399416950e-01 6.7961754469491897e-01 0.0000000000000000e+00  1.9765043960523884e-01 6.6860056093367448e-01 0.0000000000000000e+00  1.6497170280225451e-01 6.3504821337505069e-01 0.0000000000000000e+00  1.2347363386202584e-01 5.2933689990890698e-01 0.0000000000000000e+00  6.1933933257063790e-02 3.1572403419898698e-01 0.0000000000000000e+00  3.9507229920481999e-03 1.5686882506843886e-01 0.0000000000000000e+00  -2.5122080746283481e-02 4.1385517001801042e-02 0.0000000000000000e+00  -2.9979785960529443e-02 -6.4339295611845385e-02 0.0000000000000000e+00  -1.5498109329650759e-02 -1.8543678653682882e-01 0.0000000000000000e+00  2.1026644355627355e-02 -2.9947567914117890e-01 0.0000000000000000e+00  8.8831210871861244e-02 -4.2356426874897285e-01 0.0000000000000000e+00  2.1863011599556931e-01 -5.7213420146848204e-01 0.0000000000000000e+00  3.2610739542834782e-01 -6.2918862769997097e-01 0.0000000000000000e+00  4.2916380352250344e-01 -6.1791004741880418e-01 0.0000000000000000e+00  7.3864762778925996e-01 -6.9420719751022830e-01 0.0000000000000000e+00  9.9107000511785637e-01 -7.8159443478205159e-01 0.0000000000000000e+00  1.1971776662837421e+00 -8.0889712747488851e-01 0.0000000000000000e+00  1.5115864711916245e+00 -8.0695937496954007e-01 0.0000000000000000e+00  1.6699888348546150e+00 -7.4348005533527040e-01 0.0000000000000000e+00  1.7402200699509649e+00 -6.6971100251588322e-01 0.0000000000000000e+00  1.7762828715531280e+00 -6.1710647205999136e-01 0.0000000000000000e+00  1.8957423650358980e+00 -6.3782914537195512e-01 0.0000000000000000e+00  2.0863381646420209e+00 -6.9430088130100365e-01 0.0000000000000000e+00  2.1872712441143891e+00 -7.6668040462393272e-01 0.0000000000000000e+00  2.2273984399173909e+00 -8.9478217080867783e-01 0.0000000000000000e+00  2.2250285160255023e+00 -1.0124746344319167e+00 0.0000000000000000e+00  2.2572903645722819e+00 -1.1232868365318651e+00 0.0000000000000000e+00  2.3231674645429563e+00 -1.1660229136842917e+00 0.0000000000000000e+00  2.4804097992744363e+00 -1.2193077867231592e+00 0.0000000000000000e+00  2.7157609906979836e+00 -1.2725090676201203e+00 0.0000000000000000e+00  2.8076809134319971e+00 -1.2638358623868964e+00 0.0000000000000000e+00  2.9322554134526508e+00 -1.2127163879128435e+00 0.0000000000000000e+00  2.9903120565100361e+00 -1.1278668149878783e+00 0.0000000000000000e+00  2.9986683837944952e+00 -1.0429161283465698e+00 0.0000000000000000e+00  2.9571399159474931e+00 -9.5772449424064388e-01 0.0000000000000000e+00  2.8738455910436134e+00 -9.0636660019464477e-01 0.0000000000000000e+00  2.7737177989776582e+00 -9.3107829962054078e-01 0.0000000000000000e+00  2.6716354431001821e+00 -9.4636091080197215e-01 0.0000000000000000e+00  2.5869977592453006e+00 -8.7501802678929530e-01 0.0000000000000000e+00  2.6073523379923520e+00 -7.5524520742289269e-01 0.0000000000000000e+00  2.6593192170119457e+00 -6.8926508118072971e-01 0.0000000000000000e+00  2.7348012630987104e+00 -6.3402534861531279e-01 0.0000000000000000e+00  2.8226970810173260e+00 -6.0301251187855642e-01 0.0000000000000000e+00  2.9081987880395976e+00 -5.5672774754739562e-01 0.0000000000000000e+00  2.9529307920095889e+00 -4.8808773984122072e-01 0.0000000000000000e+00  2.9940456933747219e+00 -3.7547418527060011e-01 0.0000000000000000e+00  3.0143271755035816e+00 -2.5385191447773864e-01 0.0000000000000000e+00  3.0075395436234640e+00 -1.4823129517708489e-01 0.0000000000000000e+00  2.9942187656774237e+00 -3.7250483523395675e-02 0.0000000000000000e+00  2.9847226414965426e+00 4.5055532241007355e-02 0.0000000000000000e+00  2.9652658916345773e+00 1.1856144438570322e-01 0.0000000000000000e+00  2.9300350132301793e+00 1.9435991692892221e-01 0.0000000000000000e+00  2.8740361126401628e+00 2.5398076759341670e-01 0.0000000000000000e+00  2.7926075179997807e+00 3.0705581289509593e-01 0.0000000000000000e+00  2.7132706971192291e+00 3.2933341834042640e-01 0.0000000000000000e+00  2.6870547534780087e+00 3.2570598442297721e-01 0.0000000000000000e+00  2.6295441840423228e+00 3.4163645288685274e-01 0.0000000000000000e+00  2.5500227712604020e+00 3.6514115084393012e-01 0.0000000000000000e+00  2.3550743385479316e+00 4.0586309791896813e-01 0.0000000000000000e+00  2.1943461147093082e+00 4.3830197577762403e-01 0.0000000000000000e+00  2.0396359537592201e+00 4.4912880523275145e-01 0.0000000000000000e+00  1.9564500242300076e+00 4.5457649425309005e-01 0.0000000000000000e+00  1.8683063963692097e+00 4.7451542765215243e-01 0.0000000000000000e+00  1.7594108687023362e+00 4.9431653057809755e-01 0.0000000000000000e+00  1.6094002653902544e+00 5.0552187929850589e-01 0.0000000000000000e+00  1.5214976852646631e+00 4.9639894608325774e-01 0.0000000000000000e+00  1.4920578941658738e+00 4.9376082318189102e-01 0.0000000000000000e+00  1.4690206056647488e+00 5.0298496066351006e-01 0.0000000000000000e+00  1.7774920959031684e+00 4.8406836362103467e-01 0.0000000000000000e+00  1.5555097574318810e+00 -1.6146936815198812e-01 0.0000000000000000e+00  0.0000000000000000e+00 0.0000000000000000e+00 0.0000000000000000e+00  0.0000000000000000e+00 0.0000000000000000e+00 0.0000000000000000e+00  1.4624527559437486e+00 5.0870734256030858e-01 0.0000000000000000e+00  1.4561521890295401e+00 5.1252500745239360e-01 0.0000000000000000e+00  1.4463257417476938e+00 5.1743874893861941e-01 0.0000000000000000e+00  1.4317482272231419e+00 5.2374278428604526e-01 0.0000000000000000e+00  1.3872926096255245e+00 5.3772761527870649e-01 0.0000000000000000e+00  1.3548833155492674e+00 5.4554609399811771e-01 0.0000000000000000e+00  1.3083605348065086e+00 5.5345080830532445e-01 0.0000000000000000e+00  1.1713437825217559e+00 5.6276345726350852e-01 0.0000000000000000e+00  8.5553177995275176e-01 5.1521534155424986e-01 0.0000000000000000e+00  7.8207837030598515e-01 5.0100689043108060e-01 0.0000000000000000e+00  4.9452601123091505e-01 4.8830045995974591e-01 0.0000000000000000e+00  4.4139499737763938e-01 5.2325078265276448e-01 0.0000000000000000e+00  3.4949764268199224e-01 6.0227244578984485e-01 0.0000000000000000e+00  3.1828479259231079e-01 6.3324993810011776e-01 0.0000000000000000e+00  2.2982286078160635e-01 6.7459124293562245e-01 0.0000000000000000e+00  1.5407014272958966e-01 6.0929461507179639e-01 0.0000000000000000e+00  1.4024319079114503e-01 5.7511538700153242e-01 0.0000000000000000e+00  1.0308786231247342e-01 4.7668786042481998e-01 0.0000000000000000e+00  8.1428886512065993e-02 4.0760356614761545e-01 0.0000000000000000e+00  3.2465085189342172e-02 2.4526735295618474e-01 0.0000000000000000e+00  -2.4138372795073717e-02 -1.2880251906914864e-01 0.0000000000000000e+00  1.5516185824973072e-01 -5.0828533859733016e-01 0.0000000000000000e+00  5.2517279023004115e-01 -6.5474829220214237e-01 0.0000000000000000e+00  6.2473010676967800e-01 -6.8280940304117876e-01 0.0000000000000000e+00  1.3774642336206508e+00 -8.2435554704442537e-01 0.0000000000000000e+00  1.5906063544786080e+00 -7.7852633541368188e-01 0.0000000000000000e+00  1.8138933214940063e+00 -6.0440359571219915e-01 0.0000000000000000e+00  2.2060171614906001e+00 -8.2140018782519164e-01 0.0000000000000000e+00  2.2430878493561228e+00 -1.0750867767759880e+00 0.0000000000000000e+00  2.3912319781510312e+00 -1.1889598600353333e+00 0.0000000000000000e+00  2.5799749129363705e+00 -1.2423415276585990e+00 0.0000000000000000e+00  2.6567984195577723e+00 -1.2595694816063163e+00 0.0000000000000000e+00  2.8619147449768154e+00 -1.2415589911060441e+00 0.0000000000000000e+00  2.8303787253502426e+00 -9.1727433998984664e-01 0.0000000000000000e+00  2.5966976336702623e+00 -8.2227541180052277e-01 0.0000000000000000e+00  2.8710603765727156e+00 -5.7630684969896406e-01 0.0000000000000000e+00  3.0060601505799749e+00 -3.0610510159963339e-01 0.0000000000000000e+00  3.0025912552174727e+00 -8.6892966053696938e-02 0.0000000000000000e+00  2.9518989423789193e+00 1.5270014679696248e-01 0.0000000000000000e+00  2.8297188606946793e+00 2.8699964149344920e-01 0.0000000000000000e+00  2.7469447438820747e+00 3.2397555665829830e-01 0.0000000000000000e+00  2.6631992676658909e+00 3.2859457097108008e-01 0.0000000000000000e+00  2.4730026425235554e+00 3.9712560008300818e-01 0.0000000000000000e+00  2.1171758430427183e+00 4.4163830994427278e-01 0.0000000000000000e+00  1.6786301732799245e+00 5.0125611223531397e-01 0.0000000000000000e+00  1.5528520887863879e+00 5.0075848435546255e-01 0.0000000000000000e+00  1.5020836257150012e+00 4.9391923756958461e-01 0.0000000000000000e+00  1.4850579994704161e+00 4.9603623508502598e-01 0.0000000000000000e+00  1.4783342603535412e+00 4.9873494616711278e-01 0.0000000000000000e+00  1.4730389265295767e+00 5.0102700754871121e-01 0.0000000000000000e+00  2.0465018381689681e+00 5.1113371692764220e-01 0.0000000000000000e+00  2.3440466983485755e+00 5.1331259101829307e-01 0.0000000000000000e+00  2.6637402558373195e+00 4.6099630180910339e-01 0.0000000000000000e+00  2.9386999903348348e+00 3.2292366231359582e-01 0.0000000000000000e+00  3.0425114967130278e+00 9.0517059417459036e-02 0.0000000000000000e+00  2.8993748087247035e+00 -1.4735080793743488e-01 0.0000000000000000e+00  2.5296973304235681e+00 -2.8456520107817568e-01 0.0000000000000000e+00  2.1253339611936304e+00 -2.6766894961084142e-01 0.0000000000000000e+00  1.8189261170172839e+00 -2.0137979712491169e-01 0.0000000000000000e+00  1.4554958313476907e+00 1.1864782850413556e-01 0.0000000000000000e+00  1.3741948564344715e+00 3.9466131927710468e-01 0.0000000000000000e+00  1.3109359623216545e+00 6.0474747264877959e-01 0.0000000000000000e+00  1.2423596615818806e+00 7.2698063655431711e-01 0.0000000000000000e+00  1.1589927012374952e+00 7.5604068218334608e-01 0.0000000000000000e+00  1.0434474184738012e+00 6.8204855327458469e-01 0.0000000000000000e+00  8.7048786995600569e-01 5.2263837371689359e-01 0.0000000000000000e+00  6.2886103896035961e-01 3.3467548032444078e-01 0.0000000000000000e+00  3.3736071418629365e-01 1.7536546563371211e-01 0.0000000000000000e+00  4.0511128129796170e-01 -2.3049527834399522e-01 0.0000000000000000e+00  7.3628258290868676e-01 -4.4090185394469633e-01 0.0000000000000000e+00  9.8312201250179010e-01 -6.9752875458950758e-01 0.0000000000000000e+00  1.0971585096776375e+00 -8.4753250780282963e-01 0.0000000000000000e+00  1.1716526295400471e+00 -7.6649864148631042e-01 0.0000000000000000e+00  1.2856730983319691e+00 -5.4085269141618486e-01 0.0000000000000000e+00  1.4306869881832676e+00 -2.7652792531210252e-01 0.0000000000000000e+00  1.5687236510282114e+00 -2.4082345823429115e-02 0.0000000000000000e+00  1.6811340879604169e+00 2.2053188248246366e-01 0.0000000000000000e+00  0.0000000000000000e+00 0.0000000000000000e+00 0.0000000000000000e+00  0.0000000000000000e+00 0.0000000000000000e+00 0.0000000000000000e+00  0.0000000000000000e+00 0.0000000000000000e+00 0.0000000000000000e+00  0.0000000000000000e+00 0.0000000000000000e+00 0.0000000000000000e+00  0.0000000000000000e+00 0.0000000000000000e+00 0.0000000000000000e+00  0.0000000000000000e+00 0.0000000000000000e+00 0.0000000000000000e+00  0.0000000000000000e+00 0.0000000000000000e+00 0.0000000000000000e+00  0.0000000000000000e+00 0.0000000000000000e+00 0.0000000000000000e+00  0.0000000000000000e+00 0.0000000000000000e+00 0.0000000000000000e+00  2.9715536859758509e+00 -4.3839979547199115e-01 0.0000000000000000e+00  2.3157519009526886e+00 8.7968358837476929e-04 0.0000000000000000e+00  2.2670909489540464e-01 -7.9676749939515387e-02 0.0000000000000000e+00  2.5009944381891663e-01 5.8198939232082234e-02 0.0000000000000000e+00  1.6538276307326931e+00 4.9501251007134339e-01 0.0000000000000000e+00  1.3037509098718894e+00 6.6764095031439352e-01 0.0000000000000000e+00  2.9823049272030970e+00 1.3520485040382646e-01 0.0000000000000000e+00  1.3963889970366490e+00 -6.6933061016245121e-01 0.0000000000000000e+00  -1.5760061251451164e-02 -8.7938032145152261e-03 0.0000000000000000e+00  7.1867356907897906e-01 4.1905274837040024e-01 0.0000000000000000e+00  9.7990432198309319e-01 -7.3022537199545368e-01 0.0000000000000000e+00  1.4825477864318082e-01 5.8162149276640464e-02 0.0000000000000000e+00  2.1058341510968773e-01 -1.0406863197306927e-01 0.0000000000000000e+00  1.8782111648041739e+00 3.3193136428525816e-01 0.0000000000000000e+00  1.6336367206508975e+00 1.6220942621369490e-03 0.0000000000000000e+00  2.5541027664861232e-01 3.9420703242862754e-01 0.0000000000000000e+00  2.4061373936814001e+00 -7.3490457043052071e-01 0.0000000000000000e+00  2.4169520682114305e+00 -9.8095576303028043e-01 0.0000000000000000e+00  2.7702959869321377e+00 -1.1000920497706070e+00 0.0000000000000000e+00  2.8252868497948951e+00 -4.4746278445201398e-01 0.0000000000000000e+00  2.3503658342015993e-01 5.9701387474309131e-01 0.0000000000000000e+00  1.4592617090879691e+00 5.0651507884406688e-01 0.0000000000000000e+00  3.1761565292235720e-02 -2.2920583946070081e-02 0.0000000000000000e+00  2.0405281493490577e+00 1.1436167205630890e-01 0.0000000000000000e+00  1.7120963259691693e+00 -3.4850078507651178e-01 0.0000000000000000e+00  2.7581991487218982e+00 1.5971921038398809e-01 0.0000000000000000e+00  2.5539108166439131e+00 -8.8668090361679913e-02 0.0000000000000000e+00  2.1328563858909217e+00 1.3167947681528361e-01 0.0000000000000000e+00  3.8177359552609347e-01 1.5694616937787578e-01 0.0000000000000000e+00  5.7336639739140294e-01 -3.3703706394765082e-01 0.0000000000000000e+00  1.0805071607411150e+00 6.8424834736554552e-01 0.0000000000000000e+00  1.6626559810152284e+00 2.4281460611658576e-01 0.0000000000000000e+00  7.0452770177600349e-02 -6.4424670068740211e-02 0.0000000000000000e+00  1.4292881732342428e+00 6.4123982177405736e-01 0.0000000000000000e+00  1.6653194647400060e+00 5.6458895147670485e-01 0.0000000000000000e+00  3.2810031795182742e-01 1.5114310885431526e-01 0.0000000000000000e+00  4.4137695145006800e-01 -2.6748658093547412e-01 0.0000000000000000e+00  8.0458128767485038e-02 2.0318955097332848e-03 0.0000000000000000e+00  9.4702085103557931e-02 -9.0886685529846176e-03 0.0000000000000000e+00  1.1720651201433738e+00 -7.9593450241294506e-01 0.0000000000000000e+00  2.9844781547962165e+00 4.7749360150404915e-02 0.0000000000000000e+00  1.4298104238684328e+00 5.8647301402534191e-01 0.0000000000000000e+00  2.8135579615552855e+00 1.5555380558279594e-01 0.0000000000000000e+00  2.9269965399686058e+00 1.4636338448313521e-01 0.0000000000000000e+00  1.4591433807744538e+00 -6.6504686080929321e-01 0.0000000000000000e+00  -7.0105290266639451e-03 -2.0953416171092007e-03 0.0000000000000000e+00  7.4568144688087523e-01 4.5369355545932372e-01 0.0000000000000000e+00  1.0315143532308819e+00 -7.9165444007226038e-01 0.0000000000000000e+00  1.4776346637773904e-01 3.3060530279671552e-01 0.0000000000000000e+00  2.7833365312931981e+00 -5.1592346110631848e-01 0.0000000000000000e+00  2.6336167712124192e-01 5.0555823278807732e-01 0.0000000000000000e+00  2.5285960626325092e+00 -5.8698201076444412e-01 0.0000000000000000e+00  2.2537943279868355e+00 -5.9177378449078444e-01 0.0000000000000000e+00  2.5842533723849357e+00 -1.1177878781136563e+00 0.0000000000000000e+00  2.4249368557338129e+00 -8.4870656225636731e-01 0.0000000000000000e+00  2.8662085458401716e+00 -1.0523226220222912e+00 0.0000000000000000e+00  2.9073776556752033e+00 -4.1688475855905222e-01 0.0000000000000000e+00  2.3099999442761137e+00 -9.4041585499610136e-01 0.0000000000000000e+00  2.8682833967264774e+00 -5.1459755649348526e-01 0.0000000000000000e+00  2.3711184258773099e+00 -1.0985868809470716e+00 0.0000000000000000e+00  2.8118710987828246e+00 -1.1912829652495442e+00 0.0000000000000000e+00  2.7359338697874782e+00 -1.0036118874957263e+00 0.0000000000000000e+00  1.9120514822030757e-01 5.7292301659506983e-01 0.0000000000000000e+00  2.5651919678601648e-01 6.3663637974941656e-01 0.0000000000000000e+00  2.0443171123599332e-01 6.2807014674197126e-01 0.0000000000000000e+00  1.4387282887407951e+00 5.1498260729143464e-01 0.0000000000000000e+00  1.4672159572105630e+00 5.0327633365129798e-01 0.0000000000000000e+00  1.4611265033346852e+00 5.0694647475866750e-01 0.0000000000000000e+00  2.0377935135538068e+00 -2.6470119316520574e-01 0.0000000000000000e+00  2.4567286454453781e+00 2.1480297583569793e-01 0.0000000000000000e+00  4.4580222990469688e-02 1.3421589924561966e-02 0.0000000000000000e+00  2.7406797669794059e+00 1.2046751767122601e-02 0.0000000000000000e+00  2.2577347054338098e-01 -9.0143036275865326e-02 0.0000000000000000e+00  1.7551924640533780e+00 -8.4581792769477387e-02 0.0000000000000000e+00  2.9853231204209250e+00 1.5219593086864938e-01 0.0000000000000000e+00  2.7213651019384959e+00 7.7335908661238240e-02 0.0000000000000000e+00  6.0281467261366428e-01 3.2715232843113023e-01 0.0000000000000000e+00  7.4710913298747946e-04 -1.8701104377499483e-02 0.0000000000000000e+00  4.9483740060436571e-01 2.2801633576901320e-01 0.0000000000000000e+00  5.3648354009320880e-02 -2.7404773553433626e-02 0.0000000000000000e+00  1.9094918853498368e+00 6.6452351955917782e-02 0.0000000000000000e+00  1.4585107778042550e+00 -5.3966548354769839e-01 0.0000000000000000e+00  1.5664285981387252e-01 3.3422892900569247e-02 0.0000000000000000e+00  1.1361836124417917e+00 6.3535937624720584e-01 0.0000000000000000e+00  2.0673786567623287e+00 3.0657301343844590e-01 0.0000000000000000e+00  1.1828936702585058e+00 7.2533231498684081e-01 0.0000000000000000e+00  7.8017036130561557e-01 -5.0988554313401802e-01 0.0000000000000000e+00  1.9915017682426281e+00 3.3684280447122422e-01 0.0000000000000000e+00  1.4612781151219398e+00 5.0305896409217699e-01 0.0000000000000000e+00  9.0719867873116899e-01 5.8608383062220859e-01 0.0000000000000000e+00  -3.2761614876519629e-02 -3.4437916614730793e-03 0.0000000000000000e+00  1.8296119142846028e+00 1.4298640564576565e-01 0.0000000000000000e+00  2.5702120521930305e+00 -2.9486928336848361e-01 0.0000000000000000e+00  7.8514365814062140e-02 7.4720702987738127e-02 0.0000000000000000e+00  8.4098764826898298e-01 -6.0064138964030711e-01 0.0000000000000000e+00  1.1734692883365312e+00 -7.7653810906854626e-01 0.0000000000000000e+00  2.7938422740132776e+00 -6.8120251687401170e-02 0.0000000000000000e+00  2.8678954544332486e-01 1.2156119918096769e-01 0.0000000000000000e+00  1.3832284664665875e-01 -2.3063550123977958e-01 0.0000000000000000e+00  2.9237560529588795e+00 2.0200022592790731e-01 0.0000000000000000e+00  1.4890680820724771e+00 6.1558832265463970e-01 0.0000000000000000e+00  -5.8381977652446548e-03 -8.0522439655303618e-02 0.0000000000000000e+00  2.0011773332897609e-01 -1.0406659474536394e-01 0.0000000000000000e+00  1.5558711992737071e+00 5.8364317567300894e-01 0.0000000000000000e+00  1.6245170239717501e+00 5.5916002498982931e-01 0.0000000000000000e+00  1.8159138205787924e+00 5.2241689355159104e-01 0.0000000000000000e+00  1.1613741968432862e+00 -8.1004565239387216e-01 0.0000000000000000e+00  2.4707022631630053e+00 1.8188519464214098e-01 0.0000000000000000e+00  1.0508721698738241e+00 -7.9223984854460117e-01 0.0000000000000000e+00  3.7639071341584029e-01 2.7641654913145425e-01 0.0000000000000000e+00  4.4264075828506799e-01 -3.9492800402234718e-01 0.0000000000000000e+00  1.4661050210980191e+00 5.3829647697913752e-01 0.0000000000000000e+00  1.5643547692804882e+00 -6.5747267923467201e-01 0.0000000000000000e+00  8.6092893082845612e-01 5.5474370474555690e-01 0.0000000000000000e+00  2.9103232101883800e+00 -3.0064662342056087e-01 0.0000000000000000e+00  1.8098970635110753