<?xml version="1.0"?>
<VTKFile type="UnstructuredGrid"  version="0.1"  >
<UnstructuredGrid>
<Piece  NumberOfPoints="2868" NumberOfCells="5400">
<Points>
<DataArray  type="Float64"  NumberOfComponents="3"  format="ascii">0.534923 0.326073 0  0.510642 0.314196 0  0.466125 0.293082 0  0.436448 0.281205 0  0.409468 0.275927 0  0.368998 0.270648 0  0.35281 0.275927 0  0.381139 0.302319 0  0.405421 0.326073 0  0.410817 0.33531 0  0.408119 0.349826 0  0.400025 0.357744 0  0.375743 0.368301 0  0.329878 0.392055 0  0.297502 0.432963 0  0.282663 0.476511 0  0.285361 0.524018 0  0.298851 0.572845 0  0.317737 0.6045160000000001 0  0.337972 0.6361869999999999 0  0.360904 0.674457 0  0.368998 0.69953 0  0.359555 0.7219640000000001 0  0.360904 0.757594 0  0.370347 0.766831 0  0.381139 0.762872 0  0.390582 0.741758 0  0.404072 0.720644 0  0.424307 0.707448 0  0.447239 0.702169 0  0.480964 0.704808 0  0.479615 0.6889729999999999 0  0.468823 0.675776 0  0.447239 0.6691780000000001 0  0.428354 0.6691780000000001 0  0.410817 0.6639 0  0.404072 0.653343 0  0.395978 0.628269 0  0.387884 0.59132 0  0.389233 0.576804 0  0.397327 0.557009 0  0.410817 0.547772 0  0.424307 0.546452 0  0.437797 0.55305 0  0.44589 0.5662469999999999 0  0.441843 0.582082 0  0.439145 0.5979179999999999 0  0.449937 0.609795 0  0.468823 0.603196 0  0.479615 0.59 0  0.489058 0.570205 0  0.494454 0.546452 0  0.505246 0.522699 0  0.522783 0.509502 0  0.55246 0.494986 0  0.586185 0.484429 0  0.615863 0.48047 0  0.64554 0.473872 0  0.6671240000000001 0.461995 0  0.683312 0.451438 0  0.696802 0.435603 0  0.703547 0.417128 0  0.7116400000000001 0.393374 0  0.7183850000000001 0.37226 0  0.7251300000000001 0.364342 0  0.739969 0.353785 0  0.7453650000000001 0.344548 0  0.7453650000000001 0.327393 0  0.737271 0.318155 0  0.7183850000000001 0.316835 0  0.7008490000000001 0.319475 0  0.677916 0.318155 0  0.650936 0.316835 0  0.610467 0.318155 0  0.57944 0.324753 0  0.559205 0.328712 0  0.5389699999999999 0.326073 0  1 1 0  1 0 0  0 0 0  0 1 0  0.532238 0.32476 0  0.528748 0.323052 0  0.52421 0.320833 0  0.518311 0.317947 0  0.503447 0.310783 0  0.494093 0.306347 0  0.481933 0.30058 0  0.452151 0.28749 0  0.392327 0.273691 0  0.379141 0.271971 0  0.360474 0.283066 0  0.369797 0.291752 0  0.391424 0.31238 0  0.399335 0.32012 0  0.40958 0.341964 0  0.393939 0.36039 0  0.386028 0.36383 0  0.364248 0.374254 0  0.349304 0.381994 0  0.315801 0.409841 0  0.292986 0.551616 0  0.350934 0.657818 0  0.360127 0.737055 0  0.360566 0.748664 0  0.385245 0.753692 0  0.396447 0.732578 0  0.466301 0.703661 0  0.459439 0.672908 0  0.418442 0.666195 0  0.400553 0.642441 0  0.39255 0.612619 0  0.389913 0.60058 0  0.392752 0.568197 0  0.444131 0.573132 0  0.458149 0.606926 0  0.5005540000000001 0.533026 0  0.571522 0.489019 0  0.632637 0.476741 0  0.689177 0.444553 0  0.708121 0.403702 0  0.715453 0.38144 0  0.732406 0.359166 0  0.7453650000000001 0.337089 0  0.72906 0.317581 0  0.629879 0.317522 0  0.59293 0.321884 0  0.568003 0.326991 0  0.55202 0.327775 0  0.546493 0.327054 0  0.542241 0.326499 0  1 0.9 0  1 0.8 0  1 0.7 0  1 0.6 0  1 0.5 0  1 0.4 0  1 0.3 0  1 0.2 0  1 0.1 0  0.9 0 0  0.8 0 0  0.7 0 0  0.6 0 0  0.5 0 0  0.4 0 0  0.3 0 0  0.2 0 0  0.1 0 0  0.1 1 0  0.2 1 0  0.3 1 0  0.4 1 0  0.5 1 0  0.6 1 0  0.7 1 0  0.8 1 0  0.9 1 0  0 0.1 0  0 0.2 0  0 0.3 0  0 0.4 0  0 0.5 0  0 0.6 0  0 0.7 0  0 0.8 0  0 0.9 0  0.535686 0.5031910000000001 0  0.753987 0.733359 0  0.167145 0.741436 0  0.173378 0.257204 0  0.733497 0.159862 0  0.554096 0.15788 0  0.849187 0.479053 0  0.488793 0.838452 0  0.138507 0.5592 0  0.30686 0.154944 0  0.348904 0.890523 0  0.058006 0.065099 0  0.06984899999999999 0.937917 0  0.93633 0.939704 0  0.934625 0.053613 0  0.343397 0.333452 0  0.473272 0.639943 0  0.433266 0.638072 0  0.415174 0.58269 0  0.533435 0.545042 0  0.390848 0.340652 0  0.53655 0.320242 0  0.127966 0.393775 0  0.83861 0.850455 0  0.635242 0.8551299999999999 0  0.852158 0.633441 0  0.653427 0.626848 0  0.861226 0.24292 0  0.166128 0.12976 0  0.216875 0.8698709999999999 0  0.458305 0.11179 0  0.84446 0.101633 0  0.202024 0.642528 0  0.644825 0.115855 0  0.671342 0.218358 0  0.251354 0.286186 0  0.262388 0.75153 0  0.063044 0.751571 0  0.068189 0.242962 0  0.435781 0.9053949999999999 0  0.934144 0.451133 0  0.568393 0.237622 0  0.814984 0.395506 0  0.752951 0.517227 0  0.456254 0.780699 0  0.073352 0.531116 0  0.337731 0.206071 0  0.363213 0.960371 0  0.330742 0.363592 0  0.516613 0.55705 0  0.369057 0.332992 0  0.500926 0.617309 0  0.498004 0.665534 0  0.412142 0.61178 0  0.454233 0.6366039999999999 0  0.422782 0.567496 0  0.541193 0.5214800000000001 0  0.439761 0.65557 0  0.5163 0.533672 0  0.414775 0.64562 0  0.40073 0.576135 0  0.430362 0.5880339999999999 0  0.385432 0.351492 0  0.400298 0.335397 0  0.398325 0.348194 0  0.528702 0.314885 0  0.540814 0.322334 0  0.534477 0.322953 0  0.619095 0.743583 0  0.885162 0.737972 0  0.08076 0.668849 0  0.90734 0.36634 0  0.09468699999999999 0.868937 0  0.759838 0.912152 0  0.901518 0.540898 0  0.747285 0.607479 0  0.229182 0.071641 0  0.06915399999999999 0.450091 0  0.244775 0.203309 0  0.076534 0.331755 0  0.897847 0.167826 0  0.578909 0.911415 0  0.07713299999999999 0.146341 0  0.477215 0.203448 0  0.922631 0.869341 0  0.517415 0.074785 0  0.297026 0.827793 0  0.7832710000000001 0.246505 0  0.74519 0.061079 0  0.36033 0.069068 0  0.210313 0.475228 0  0.859426 0.928758 0  0.5745479999999999 0.609182 0  0.243069 0.383398 0  0.283099 0.934598 0  0.417416 0.843141 0  0.643942 0.553164 0  0.112687 0.079336 0  0.281357 0.658386 0  0.765043 0.436177 0  0.611361 0.198486 0  0.234496 0.58911 0  0.206479 0.702638 0  0.679608 0.155818 0  0.62682 0.259978 0  0.690538 0.264164 0  0.448938 0.956308 0  0.808154 0.328403 0  0.379583 0.91913 0  0.308083 0.297769 0  0.312358 0.730249 0  0.563101 0.278576 0  0.435597 0.746198 0  0.385475 0.225229 0  0.572248 0.518034 0  0.357864 0.35422 0  0.497647 0.641694 0  0.458101 0.655768 0  0.360474 0.310727 0  0.467038 0.620139 0  0.47798 0.659909 0  0.41102 0.628072 0  0.48324 0.609015 0  0.427544 0.617941 0  0.388633 0.328253 0  0.405336 0.599404 0  0.408351 0.565178 0  0.42395 0.600985 0  0.431562 0.576523 0  0.424905 0.6551979999999999 0  0.398064 0.58782 0  0.427739 0.557934 0  0.5192909999999999 0.303443 0  0.53142 0.320293 0  0.5449000000000001 0.323642 0  0.537166 0.323513 0  0.153974 0.920841 0  0.9181859999999999 0.67343 0  0.759946 0.820588 0  0.5375259999999999 0.783091 0  0.816532 0.545843 0  0.813991 0.178083 0  0.836774 0.702023 0  0.149815 0.318856 0  0.662287 0.923338 0  0.680146 0.791192 0  0.708961 0.663172 0  0.9372779999999999 0.287318 0  0.574622 0.6881660000000001 0  0.5894740000000001 0.076262 0  0.502822 0.926683 0  0.222269 0.811068 0  0.380457 0.164786 0  0.15321 0.684154 0  0.458063 0.051413 0  0.161702 0.056026 0  0.199351 0.198818 0  0.298946 0.09553200000000001 0  0.902465 0.795949 0  0.121139 0.791477 0  0.906269 0.112287 0  0.056109 0.822332 0  0.512172 0.13237 0  0.940964 0.741805 0  0.888887 0.408777 0  0.354543 0.825964 0  0.808736 0.068638 0  0.068507 0.394071 0  0.719105 0.563843 0  0.247287 0.149664 0  0.293062 0.237128 0  0.240524 0.434997 0  0.141255 0.623289 0  0.945202 0.160621 0  0.502914 0.247629 0  0.144669 0.480811 0  0.665025 0.060817 0  0.728047 0.224344 0  0.861995 0.313312 0  0.200068 0.534235 0  0.253262 0.965623 0  0.893804 0.49307 0  0.604391 0.572456 0  0.947088 0.345347 0  0.439372 0.227307 0  0.629847 0.159823 0  0.273405 0.880181 0  0.302744 0.776823 0  0.781502 0.295365 0  0.275342 0.349602 0  0.7283849999999999 0.472798 0  0.229136 0.246478 0  0.807794 0.480346 0  0.709476 0.112786 0  0.275506 0.694991 0  0.771674 0.394419 0  0.449715 0.861802 0  0.419159 0.799696 0  0.674851 0.503139 0  0.280443 0.61016 0  0.572443 0.192538 0  0.393113 0.87525 0  0.405555 0.948428 0  0.330942 0.934103 0  0.540509 0.597101 0  0.312763 0.6689310000000001 0  0.254368 0.540179 0  0.595265 0.25915 0  0.606679 0.234099 0  0.657131 0.279138 0  0.722458 0.279478 0  0.333 0.308056 0  0.351529 0.246142 0  0.455714 0.7257940000000001 0  0.585239 0.295143 0  0.340062 0.72492 0  0.545593 0.293773 0  0.555449 0.545426 0  0.414311 0.737314 0  0.590854 0.502323 0  0.350507 0.368444 0  0.484423 0.625665 0  0.483899 0.674542 0  0.378137 0.317274 0  0.446416 0.646404 0  0.373532 0.347654 0  0.446876 0.619769 0  0.466106 0.666068 0  0.437545 0.609254 0  0.434988 0.565726 0  0.41462 0.656829 0  0.418803 0.556961 0  0.398425 0.327446 0  0.517803 0.310421 0  0.549516 0.322918 0  0.57701 0.842889 0  0.8291269999999999 0.773906 0  0.643235 0.684732 0  0.134281 0.207734 0  0.865997 0.055966 0  0.680959 0.723345 0  0.165229 0.8415550000000001 0  0.54558 0.959672 0  0.783726 0.656439 0  0.913315 0.595533 0  0.699439 0.860667 0  0.785839 0.125076 0  0.551673 0.037713 0  0.9200970000000001 0.223214 0  0.206406 0.299726 0  0.087064 0.596401 0  0.935644 0.394252 0  0.964557 0.252582 0  0.230124 0.928346 0  0.120579 0.271764 0  0.8572149999999999 0.524082 0  0.7670979999999999 0.5551469999999999 0  0.936094 0.507131 0  0.804064 0.59585 0  0.700565 0.608273 0  0.429773 0.174231 0  0.117746 0.727333 0  0.5389620000000001 0.730231 0  0.862761 0.359173 0  0.821444 0.284046 0  0.193552 0.35818 0  0.234923 0.505555 0  0.193209 0.421217 0  0.220144 0.755896 0  0.594015 0.131642 0  0.283813 0.195855 0  0.517519 0.213961 0  0.553509 0.639116 0  0.280391 0.378018 0  0.852183 0.436817 0  0.746983 0.197173 0  0.821806 0.221318 0  0.449853 0.828453 0  0.883758 0.453926 0  0.183484 0.589542 0  0.348384 0.129314 0  0.255254 0.838525 0  0.504849 0.798516 0  0.320344 0.863432 0  0.611669 0.525425 0  0.265864 0.804962 0  0.72056 0.521442 0  0.613372 0.6101220000000001 0  0.481262 0.881068 0  0.655778 0.191988 0  0.701921 0.196918 0  0.5658260000000001 0.5731810000000001 0  0.46914 0.240927 0  0.343219 0.173284 0  0.888786 0.278502 0  0.244113 0.6750930000000001 0  0.739546 0.417914 0  0.784023 0.355942 0  0.326805 0.265549 0  0.248616 0.6
[...]
<PointData  Vectors="f_21"> 
<DataArray  type="Float64"  Name="f_21"  NumberOfComponents="3" format="ascii">8.2720203514056057e-01 8.6712107271266992e-02 0.0000000000000000e+00  8.0642235772385362e-01 9.5924265507105047e-02 0.0000000000000000e+00  7.3540558745563211e-01 1.1244686460860844e-01 0.0000000000000000e+00  6.6867371416644283e-01 1.1864279498254063e-01 0.0000000000000000e+00  6.0225441645485733e-01 1.1906727495305804e-01 0.0000000000000000e+00  4.7833874943735616e-01 1.2806804594169802e-01 0.0000000000000000e+00  3.9778808244541564e-01 1.3111684826319966e-01 0.0000000000000000e+00  2.9033490873473605e-01 2.1503006187435705e-01 0.0000000000000000e+00  2.3662660042065065e-01 2.6430742540208907e-01 0.0000000000000000e+00  2.1658645421728859e-01 2.7601116234053935e-01 0.0000000000000000e+00  1.8450771759295806e-01 2.7009200784318266e-01 0.0000000000000000e+00  1.6668688701119633e-01 2.5199602198333682e-01 0.0000000000000000e+00  1.4332151111122166e-01 1.9654381456571388e-01 0.0000000000000000e+00  1.0298731746724020e-01 9.8254013236449986e-02 0.0000000000000000e+00  5.5659362964702239e-02 3.9370257976333728e-02 0.0000000000000000e+00  2.7257717003151244e-02 2.8310868941912978e-03 0.0000000000000000e+00  1.7682852063469357e-02 -3.0746894811087690e-02 0.0000000000000000e+00  2.8294458260182193e-02 -7.5630201259537497e-02 0.0000000000000000e+00  5.2183037196597087e-02 -1.2283817325407115e-01 0.0000000000000000e+00  9.2234616709063355e-02 -1.7697018856447061e-01 0.0000000000000000e+00  1.6370692250739335e-01 -2.4380039027042469e-01 0.0000000000000000e+00  2.2174580230245100e-01 -2.6992257823938626e-01 0.0000000000000000e+00  2.7972771465000867e-01 -2.5468455274434926e-01 0.0000000000000000e+00  4.4331699249004147e-01 -2.6323255103348436e-01 0.0000000000000000e+00  5.6518000843342864e-01 -2.8435517450974723e-01 0.0000000000000000e+00  6.6402271169855720e-01 -2.7962996701035442e-01 0.0000000000000000e+00  8.0480900493189989e-01 -2.6694733135039156e-01 0.0000000000000000e+00  8.7285247726470294e-01 -2.3362659130128091e-01 0.0000000000000000e+00  9.0170378054959266e-01 -1.9815080722061768e-01 0.0000000000000000e+00  9.1483781458068492e-01 -1.7220923330513113e-01 0.0000000000000000e+00  9.5452655247303653e-01 -1.6914185539779192e-01 0.0000000000000000e+00  1.0183158347703387e+00 -1.7764474962364959e-01 0.0000000000000000e+00  1.0514296454065215e+00 -1.8313879516892317e-01 0.0000000000000000e+00  1.0672813382047166e+00 -1.9009350790513532e-01 0.0000000000000000e+00  1.0691402202357814e+00 -1.9956768314492809e-01 0.0000000000000000e+00  1.0725320998600416e+00 -2.1174164957765873e-01 0.0000000000000000e+00  1.0802566798212991e+00 -2.1728177677130081e-01 0.0000000000000000e+00  1.1005556735688435e+00 -2.2733437120495786e-01 0.0000000000000000e+00  1.1434057428067341e+00 -2.4408174825462117e-01 0.0000000000000000e+00  1.1639798823469454e+00 -2.4379072510395056e-01 0.0000000000000000e+00  1.1930562131121096e+00 -2.3343205430594244e-01 0.0000000000000000e+00  1.2066856074895127e+00 -2.1440232673748358e-01 0.0000000000000000e+00  1.2086983784744838e+00 -1.9526827687761386e-01 0.0000000000000000e+00  1.1993394682498848e+00 -1.7613736150861908e-01 0.0000000000000000e+00  1.1801517080352084e+00 -1.6455815833446141e-01 0.0000000000000000e+00  1.1560180680868941e+00 -1.7199253298393619e-01 0.0000000000000000e+00  1.1313197619814730e+00 -1.8250636061887140e-01 0.0000000000000000e+00  1.1178146377983798e+00 -1.8355908830945464e-01 0.0000000000000000e+00  1.1272550994583874e+00 -1.7872088507210504e-01 0.0000000000000000e+00  1.1452347540001486e+00 -1.7461969342415334e-01 0.0000000000000000e+00  1.1706206450972703e+00 -1.7095841875346476e-01 0.0000000000000000e+00  1.1986458719022206e+00 -1.6891776116203444e-01 0.0000000000000000e+00  1.2247041562891197e+00 -1.5961707920510626e-01 0.0000000000000000e+00  1.2389326055185901e+00 -1.4334568063116604e-01 0.0000000000000000e+00  1.2558249722581423e+00 -1.1704870578049124e-01 0.0000000000000000e+00  1.2702195815200183e+00 -8.8050549872570771e-02 0.0000000000000000e+00  1.2797299226267895e+00 -6.4010394599357520e-02 0.0000000000000000e+00  1.2938359717739463e+00 -3.9975441658526303e-02 0.0000000000000000e+00  1.3095483773306558e+00 -1.9537019502531224e-02 0.0000000000000000e+00  1.3185056466086023e+00 -3.3991773881817311e-04 0.0000000000000000e+00  1.3242459853895430e+00 2.1069716228994732e-02 0.0000000000000000e+00  1.3217929302678810e+00 3.8601403407345268e-02 0.0000000000000000e+00  1.3109321246239478e+00 5.7035533311714501e-02 0.0000000000000000e+00  1.2970163074081633e+00 6.6932883104017696e-02 0.0000000000000000e+00  1.2927649605944267e+00 6.9223342741993890e-02 0.0000000000000000e+00  1.2794930952757060e+00 8.3087059860017798e-02 0.0000000000000000e+00  1.2564664467156670e+00 9.5223549375808139e-02 0.0000000000000000e+00  1.1912982040528013e+00 1.1247659837053900e-01 0.0000000000000000e+00  1.1307311139622425e+00 1.2221530217887860e-01 0.0000000000000000e+00  1.0660435295266439e+00 1.1713353292156639e-01 0.0000000000000000e+00  1.0293908210438711e+00 1.1075509943668255e-01 0.0000000000000000e+00  9.9279336235523463e-01 1.0904442550709176e-01 0.0000000000000000e+00  9.4769336871298937e-01 1.0702956550793814e-01 0.0000000000000000e+00  8.8549561609795047e-01 9.9496562253199666e-02 0.0000000000000000e+00  8.4880683356154263e-01 8.9203268183768822e-02 0.0000000000000000e+00  8.3666708242376897e-01 8.4852860063963614e-02 0.0000000000000000e+00  8.2832730656972298e-01 8.5961656862450608e-02 0.0000000000000000e+00  1.1928499273400237e+00 -2.3344363474529246e-02 0.0000000000000000e+00  1.2535494074998346e+00 1.6150835398436922e-01 0.0000000000000000e+00  0.0000000000000000e+00 0.0000000000000000e+00 0.0000000000000000e+00  0.0000000000000000e+00 0.0000000000000000e+00 0.0000000000000000e+00  8.2599910690572842e-01 8.7632257025006335e-02 0.0000000000000000e+00  8.2375483423692997e-01 8.8898041290707747e-02 0.0000000000000000e+00  8.2017430343788289e-01 9.0584775233920792e-02 0.0000000000000000e+00  8.1475578793210301e-01 9.2903470484428569e-02 0.0000000000000000e+00  7.9762048546194597e-01 9.8689378033313777e-02 0.0000000000000000e+00  7.8468688836534550e-01 1.0235190288795253e-01 0.0000000000000000e+00  7.6559436113681423e-01 1.0691981134500207e-01 0.0000000000000000e+00  7.0666553291757339e-01 1.1604861771134478e-01 0.0000000000000000e+00  5.5844177591022326e-01 1.2038086840063120e-01 0.0000000000000000e+00  5.2009857803350767e-01 1.2330087016630421e-01 0.0000000000000000e+00  3.5284016151917824e-01 1.6772496289507896e-01 0.0000000000000000e+00  3.1989561487445806e-01 1.9140196390773589e-01 0.0000000000000000e+00  2.6638580111932558e-01 2.3527114797831580e-01 0.0000000000000000e+00  2.4945025525334608e-01 2.5146615388839116e-01 0.0000000000000000e+00  2.0198970715017606e-01 2.7331810363278392e-01 0.0000000000000000e+00  1.6066812374737055e-01 2.3821100346756777e-01 0.0000000000000000e+00  1.5291323576104604e-01 2.2017473506245938e-01 0.0000000000000000e+00  1.3148304264525673e-01 1.7028554844060273e-01 0.0000000000000000e+00  1.1804896426465625e-01 1.3769566459813912e-01 0.0000000000000000e+00  7.9926815710786317e-02 7.1317866434853452e-02 0.0000000000000000e+00  2.1235161169179843e-02 -5.3958833577672907e-02 0.0000000000000000e+00  1.2945461452806997e-01 -2.1470627872125883e-01 0.0000000000000000e+00  3.3115158955467294e-01 -2.6344754610329169e-01 0.0000000000000000e+00  3.8343596271193536e-01 -2.6826544651487655e-01 0.0000000000000000e+00  7.4555910923946311e-01 -2.7994883196355813e-01 0.0000000000000000e+00  8.3897947834916276e-01 -2.5141474980356432e-01 0.0000000000000000e+00  9.2708328756950564e-01 -1.6329440155731989e-01 0.0000000000000000e+00  1.0602917049317928e+00 -1.8522639890720469e-01 0.0000000000000000e+00  1.0710423024276563e+00 -2.0613333983132190e-01 0.0000000000000000e+00  1.0884655116504014e+00 -2.2093840393712263e-01 0.0000000000000000e+00  1.1159613917861446e+00 -2.3389324117755361e-01 0.0000000000000000e+00  1.1307880191226396e+00 -2.3983782332373357e-01 0.0000000000000000e+00  1.1765814598732696e+00 -2.3949239492231297e-01 0.0000000000000000e+00  1.1697967872388171e+00 -1.6740965803865582e-01 0.0000000000000000e+00  1.1208498036029064e+00 -1.8199489838327565e-01 0.0000000000000000e+00  1.2136509172461416e+00 -1.6383645550647347e-01 0.0000000000000000e+00  1.2639104398029839e+00 -1.0050320508335830e-01 0.0000000000000000e+00  1.2875679715429065e+00 -5.0559934930217140e-02 0.0000000000000000e+00  1.3220802866146266e+00 8.8249332719616720e-03 0.0000000000000000e+00  1.3166345623152160e+00 4.9687672052064397e-02 0.0000000000000000e+00  1.3029652969321073e+00 6.3884711263026014e-02 0.0000000000000000e+00  1.2877450476528969e+00 7.4177847516375989e-02 0.0000000000000000e+00  1.2318506896511672e+00 1.0802810271202370e-01 0.0000000000000000e+00  1.0985629821480707e+00 1.1947587078969664e-01 0.0000000000000000e+00  9.1405460671067207e-01 1.0307926924826082e-01 0.0000000000000000e+00  8.6182892331597272e-01 9.3564541985298441e-02 0.0000000000000000e+00  8.4080231728713406e-01 8.6259310934070924e-02 0.0000000000000000e+00  8.3414170932589138e-01 8.4732388933787095e-02 0.0000000000000000e+00  8.3169835199342468e-01 8.5096276963850984e-02 0.0000000000000000e+00  8.2978182188564420e-01 8.5519725182964010e-02 0.0000000000000000e+00  1.2517041583956712e+00 1.2969264169758082e-02 0.0000000000000000e+00  1.3290939129342847e+00 4.0641516974196309e-02 0.0000000000000000e+00  1.4025048292515716e+00 5.1700529360430868e-02 0.0000000000000000e+00  1.4629071641178426e+00 4.9178315769771261e-02 0.0000000000000000e+00  1.4930328010715377e+00 2.6313414200618508e-02 0.0000000000000000e+00  1.4655133474388493e+00 1.9305402313664908e-03 0.0000000000000000e+00  1.3880885070332174e+00 1.0054077415200736e-02 0.0000000000000000e+00  1.3157295217913654e+00 6.1416500966283656e-02 0.0000000000000000e+00  1.2765726982680521e+00 1.2050382391876041e-01 0.0000000000000000e+00  1.1540410237876779e+00 1.8829136325645995e-01 0.0000000000000000e+00  1.0522060251833754e+00 2.1402404359871643e-01 0.0000000000000000e+00  9.5490789590916558e-01 2.3398735625709186e-01 0.0000000000000000e+00  8.6436145842224243e-01 2.4028289688816709e-01 0.0000000000000000e+00  7.7380766598921458e-01 2.2536649459228125e-01 0.0000000000000000e+00  6.7332430798935183e-01 1.9410248632466509e-01 0.0000000000000000e+00  5.4328891028651816e-01 1.5259461701310131e-01 0.0000000000000000e+00  3.7841401033934419e-01 1.1294785032839569e-01 0.0000000000000000e+00  1.9552914317946696e-01 7.9732689493179368e-02 0.0000000000000000e+00  2.0569095918841343e-01 -7.8770892591444389e-02 0.0000000000000000e+00  4.0143238958676886e-01 -1.4416148582657984e-01 0.0000000000000000e+00  5.5374819607238612e-01 -2.4577907767908572e-01 0.0000000000000000e+00  6.3604585105785727e-01 -3.0734169186108673e-01 0.0000000000000000e+00  6.9907098608208240e-01 -2.7419597374822013e-01 0.0000000000000000e+00  7.8831251232535660e-01 -2.0094262176083269e-01 0.0000000000000000e+00  8.9731335589362793e-01 -1.3736446740271349e-01 0.0000000000000000e+00  1.0073889537618725e+00 -9.5984070906235550e-02 0.0000000000000000e+00  1.1047706120188643e+00 -6.8578734923885193e-02 0.0000000000000000e+00  0.0000000000000000e+00 0.0000000000000000e+00 0.0000000000000000e+00  0.0000000000000000e+00 0.0000000000000000e+00 0.0000000000000000e+00  0.0000000000000000e+00 0.0000000000000000e+00 0.0000000000000000e+00  0.0000000000000000e+00 0.0000000000000000e+00 0.0000000000000000e+00  0.0000000000000000e+00 0.0000000000000000e+00 0.0000000000000000e+00  0.0000000000000000e+00 0.0000000000000000e+00 0.0000000000000000e+00  0.0000000000000000e+00 0.0000000000000000e+00 0.0000000000000000e+00  0.0000000000000000e+00 0.0000000000000000e+00 0.0000000000000000e+00  0.0000000000000000e+00 0.0000000000000000e+00 0.0000000000000000e+00  1.2461288736665970e+00 -1.3186124431899096e-01 0.0000000000000000e+00  1.1451336749215801e+00 -4.7235135883331759e-02 0.0000000000000000e+00  1.6531732005811808e-01 1.0984523573809610e-02 0.0000000000000000e+00  1.9877367419498918e-01 -2.3058151984781363e-02 0.0000000000000000e+00  1.0106861429449874e+00 1.6979661038727406e-01 0.0000000000000000e+00  7.9793212989563167e-01 1.7191633817244120e-01 0.0000000000000000e+00  1.3811066685536628e+00 3.0388091115045996e-02 0.0000000000000000e+00  7.7498435124479248e-01 -2.1105093545276135e-01 0.0000000000000000e+00  2.1623514229264042e-02 3.2962889325309271e-03 0.0000000000000000e+00  4.8032043270053804e-01 1.0034473184267691e-01 0.0000000000000000e+00  5.6589128924810650e-01 -2.5477151547345828e-01 0.0000000000000000e+00  9.5690610816849361e-02 2.2888001705051831e-02 0.0000000000000000e+00  1.1927277056408578e-01 -2.6407768069378810e-02 0.0000000000000000e+00  1.1661749235136372e+00 -3.6070745875149711e-02 0.0000000000000000e+00  1.2013296969634477e+00 1.5915490977953076e-01 0.0000000000000000e+00  2.1332499750475850e-01 1.2638765514571135e-01 0.0000000000000000e+00  1.0928812572539075e+00 -1.7535929385339555e-01 0.0000000000000000e+00  1.0924639262406863e+00 -1.9576495074949748e-01 0.0000000000000000e+00  1.1543156958740661e+00 -2.0879204816920433e-01 0.0000000000000000e+00  1.2017152877917889e+00 -1.3281250196430822e-01 0.0000000000000000e+00  2.0430109862427182e-01 2.3192956896273120e-01 0.0000000000000000e+00  8.2511705673941238e-01 8.7108307083212211e-02 0.0000000000000000e+00  5.5238458545576408e-02 -3.6577658928895487e-02 0.0000000000000000e+00  1.1354549097131854e+00 -4.7334419108590715e-02 0.0000000000000000e+00  9.3824005161833290e-01 -1.2647797391631010e-01 0.0000000000000000e+00  1.3153466464640948e+00 4.7323512134800731e-03 0.0000000000000000e+00  1.1612293698329414e+00 -5.9765415392971609e-02 0.0000000000000000e+00  1.1997016980446258e+00 9.3112351622711698e-02 0.0000000000000000e+00  2.7037099849170509e-01 2.7141109007051880e-02 0.0000000000000000e+00  3.5081670735077164e-01 -8.9183322583265792e-02 0.0000000000000000e+00  6.9149922037307576e-01 1.8013025200905050e-01 0.0000000000000000e+00  1.1181376344107921e+00 1.6514313301443115e-01 0.0000000000000000e+00  7.8324984907473666e-02 -1.2216582338774515e-03 0.0000000000000000e+00  9.0590947668211685e-01 1.9610142644243239e-01 0.0000000000000000e+00  9.5497315180729325e-01 1.5294347126099592e-01 0.0000000000000000e+00  2.5367960155575814e-01 8.4010788399227973e-03 0.0000000000000000e+00  2.8922772977965955e-01 -7.4054585461132846e-02 0.0000000000000000e+00  6.2765273304612942e-02 2.5376357565226867e-02 0.0000000000000000e+00  7.7906008575827329e-02 -2.5630840579164663e-02 0.0000000000000000e+00  6.7120787432076090e-01 -2.7586283386164956e-01 0.0000000000000000e+00  1.4355943759777561e+00 2.6872646923082527e-02 0.0000000000000000e+00  8.2840811170317741e-01 1.2803491719062218e-01 0.0000000000000000e+00  1.3365926601604492e+00 4.5444278268065269e-02 0.0000000000000000e+00  1.3113486143109578e+00 1.2495695407497693e-02 0.0000000000000000e+00  7.8472415904310877e-01 -1.9664588852515963e-01 0.0000000000000000e+00  1.6062475333286818e-02 -4.4285701947338520e-04 0.0000000000000000e+00  4.8929760664506983e-01 1.1663383204804346e-01 0.0000000000000000e+00  5.9551561011555587e-01 -2.8079532718310973e-01 0.0000000000000000e+00  1.5186830991141426e-01 1.0126351951031248e-01 0.0000000000000000e+00  1.1868026120089505e+00 -1.4657924428584332e-01 0.0000000000000000e+00  2.1848177632684482e-01 1.8368849693565359e-01 0.0000000000000000e+00  1.1177709621785457e+00 -1.5519783280855115e-01 0.0000000000000000e+00  1.0616625948776577e+00 -1.5349237738127861e-01 0.0000000000000000e+00  1.1162282860089430e+00 -2.1170913815690354e-01 0.0000000000000000e+00  1.0953124528550378e+00 -1.8513166697707883e-01 0.0000000000000000e+00  1.1776395757212599e+00 -1.9795945388627431e-01 0.0000000000000000e+00  1.2278848143546572e+00 -1.2689619548306336e-01 0.0000000000000000e+00  1.0779411062018280e+00 -1.9347083264125453e-01 0.0000000000000000e+00  1.2132072553006101e+00 -1.4860821037203800e-01 0.0000000000000000e+00  1.0860484144735760e+00 -2.0903127544745378e-01 0.0000000000000000e+00  1.1646210641209129e+00 -2.2799829661094520e-01 0.0000000000000000e+00  1.1460039053553255e+00 -1.8994358190733920e-01 0.0000000000000000e+00  1.8029717824225250e-01 2.1912739687564628e-01 0.0000000000000000e+00  2.1628644867254398e-01 2.5301462807919972e-01 0.0000000000000000e+00  1.8804327458392522e-01 2.4829306837756726e-01 0.0000000000000000e+00  8.1755718726369553e-01 8.9862897061840585e-02 0.0000000000000000e+00  8.2797789308092939e-01 8.6237532366089040e-02 0.0000000000000000e+00  8.2561400271752161e-01 8.7111639217099746e-02 0.0000000000000000e+00  1.0189877141667070e+00 -9.7698727224282411e-02 0.0000000000000000e+00  1.2682407115504670e+00 -8.0193295290386466e-03 0.0000000000000000e+00  4.6358558619108363e-02 2.9017796737990501e-02 0.0000000000000000e+00  1.3658195125640098e+00 3.7185246269872685e-02 0.0000000000000000e+00  1.4421033045335319e-01 -6.0178896960568426e-03 0.0000000000000000e+00  1.0144353409761455e+00 -8.4167505297583212e-02 0.0000000000000000e+00  1.4072208551796563e+00 2.5585603755223476e-02 0.0000000000000000e+00  1.2451803091487250e+00 -1.6888147547049124e-02 0.0000000000000000e+00  4.0143826330236632e-01 8.5405017622766657e-02 0.0000000000000000e+00  2.0653182853321701e-02 -1.9456093631292155e-02 0.0000000000000000e+00  3.4990919539634874e-01 3.4260515634233754e-02 0.0000000000000000e+00  5.6790750114962540e-02 -3.5827313452302098e-02 0.0000000000000000e+00  1.1945953410415291e+00 1.1951952788730955e-01 0.0000000000000000e+00  8.3282738538997525e-01 -1.8437444070880601e-01 0.0000000000000000e+00  1.1410000751392206e-01 -2.0068002770082002e-03 0.0000000000000000e+00  6.9384807975360963e-01 1.4907272565750257e-01 0.0000000000000000e+00  1.2007878417471765e+00 -2.2709501400802027e-02 0.0000000000000000e+00  7.6954645355675189e-01 2.0411982517492153e-01 0.0000000000000000e+00  4.6249864676246222e-01 -1.6912925541804824e-01 0.0000000000000000e+00  1.1061702060320744e+00 1.1896586374850157e-01 0.0000000000000000e+00  1.0075615027745806e+00 2.0499275820550439e-01 0.0000000000000000e+00  5.9580323238635768e-01 1.5377411938252109e-01 0.0000000000000000e+00  2.4783338348233042e-02 -1.8279101991196537e-02 0.0000000000000000e+00  1.0988885451146997e+00 -5.9452621924862434e-02 0.0000000000000000e+00  1.1418225178784347e+00 -1.0169992757931781e-01 0.0000000000000000e+00  1.0330222767158247e-01 -6.8366804049400575e-03 0.0000000000000000e+00  4.8826470912158026e-01 -2.0031207620671751e-01 0.0000000000000000e+00  6.6052851418111813e-01 -2.6127921245677754e-01 0.0000000000000000e+00  1.2240209359972907e+00 -5.1363675771229550e-02 0.0000000000000000e+00  1.9225196314639953e-01 3.6851835697319528e-02 0.0000000000000000e+00  1.2082045509538143e-01 -7.8763184401427072e-02 0.0000000000000000e+00  1.3377369461921649e+00 4.1342850001645004e-02 0.0000000000000000e+00  8.7520286826506788e-01 1.5522125493002131e-01 0.0000000000000000e+00  3.5425987883638273e-02 -2.2743207308736971e-02 0.0000000000000000e+00  1.5318671561526734e-01 -5.9257263475679658e-03 0.0000000000000000e+00  9.4964734565672648e-01 1.7777794789025883e-01 0.0000000000000000e+00  9.1015585135031829e-01 1.2837809053658120e-01 0.0000000000000000e+00  9.9732717659153514e-01 1.3743674017244145e-01 0.0000000000000000e+00  6.7460786819880103e-01 -2.8711510408506791e-01 0.0000000000000000e+00  1.2463369919436693e+00 6.0786257994567522e-02 0.0000000000000000e+00  6.0570295025206033e-01 -2.7909504043500027e-01 0.0000000000000000e+00  2.8448117581225085e-01 6.0846734504869743e-02 0.0000000000000000e+00  2.9080316223353436e-01 -1.3927423291655666e-01 0.0000000000000000e+00  8.3422203797616934e-01 1.0415125013203055e-01 0.0000000000000000e+00  8.2553443774120461e-01 -1.9110107304918111e-01 0.0000000000000000e+00  5.4807352644361440e-01 1.4416230317893697e-01 0.0000000000000000e+00  1.2355484761194142e+00 -1.0060877825729447e-01 0.0000000000000000e+00  1.7256075087979955e