<?xml version="1.0"?>
<VTKFile type="UnstructuredGrid"  version="0.1"  >
<UnstructuredGrid>
<Piece  NumberOfPoints="2868" NumberOfCells="5400">
<Points>
<DataArray  type="Float64"  NumberOfComponents="3"  format="ascii">0.534923 0.326073 0  0.510642 0.314196 0  0.466125 0.293082 0  0.436448 0.281205 0  0.409468 0.275927 0  0.368998 0.270648 0  0.35281 0.275927 0  0.381139 0.302319 0  0.405421 0.326073 0  0.410817 0.33531 0  0.408119 0.349826 0  0.400025 0.357744 0  0.375743 0.368301 0  0.329878 0.392055 0  0.297502 0.432963 0  0.282663 0.476511 0  0.285361 0.524018 0  0.298851 0.572845 0  0.317737 0.6045160000000001 0  0.337972 0.6361869999999999 0  0.360904 0.674457 0  0.368998 0.69953 0  0.359555 0.7219640000000001 0  0.360904 0.757594 0  0.370347 0.766831 0  0.381139 0.762872 0  0.390582 0.741758 0  0.404072 0.720644 0  0.424307 0.707448 0  0.447239 0.702169 0  0.480964 0.704808 0  0.479615 0.6889729999999999 0  0.468823 0.675776 0  0.447239 0.6691780000000001 0  0.428354 0.6691780000000001 0  0.410817 0.6639 0  0.404072 0.653343 0  0.395978 0.628269 0  0.387884 0.59132 0  0.389233 0.576804 0  0.397327 0.557009 0  0.410817 0.547772 0  0.424307 0.546452 0  0.437797 0.55305 0  0.44589 0.5662469999999999 0  0.441843 0.582082 0  0.439145 0.5979179999999999 0  0.449937 0.609795 0  0.468823 0.603196 0  0.479615 0.59 0  0.489058 0.570205 0  0.494454 0.546452 0  0.505246 0.522699 0  0.522783 0.509502 0  0.55246 0.494986 0  0.586185 0.484429 0  0.615863 0.48047 0  0.64554 0.473872 0  0.6671240000000001 0.461995 0  0.683312 0.451438 0  0.696802 0.435603 0  0.703547 0.417128 0  0.7116400000000001 0.393374 0  0.7183850000000001 0.37226 0  0.7251300000000001 0.364342 0  0.739969 0.353785 0  0.7453650000000001 0.344548 0  0.7453650000000001 0.327393 0  0.737271 0.318155 0  0.7183850000000001 0.316835 0  0.7008490000000001 0.319475 0  0.677916 0.318155 0  0.650936 0.316835 0  0.610467 0.318155 0  0.57944 0.324753 0  0.559205 0.328712 0  0.5389699999999999 0.326073 0  1 1 0  1 0 0  0 0 0  0 1 0  0.532238 0.32476 0  0.528748 0.323052 0  0.52421 0.320833 0  0.518311 0.317947 0  0.503447 0.310783 0  0.494093 0.306347 0  0.481933 0.30058 0  0.452151 0.28749 0  0.392327 0.273691 0  0.379141 0.271971 0  0.360474 0.283066 0  0.369797 0.291752 0  0.391424 0.31238 0  0.399335 0.32012 0  0.40958 0.341964 0  0.393939 0.36039 0  0.386028 0.36383 0  0.364248 0.374254 0  0.349304 0.381994 0  0.315801 0.409841 0  0.292986 0.551616 0  0.350934 0.657818 0  0.360127 0.737055 0  0.360566 0.748664 0  0.385245 0.753692 0  0.396447 0.732578 0  0.466301 0.703661 0  0.459439 0.672908 0  0.418442 0.666195 0  0.400553 0.642441 0  0.39255 0.612619 0  0.389913 0.60058 0  0.392752 0.568197 0  0.444131 0.573132 0  0.458149 0.606926 0  0.5005540000000001 0.533026 0  0.571522 0.489019 0  0.632637 0.476741 0  0.689177 0.444553 0  0.708121 0.403702 0  0.715453 0.38144 0  0.732406 0.359166 0  0.7453650000000001 0.337089 0  0.72906 0.317581 0  0.629879 0.317522 0  0.59293 0.321884 0  0.568003 0.326991 0  0.55202 0.327775 0  0.546493 0.327054 0  0.542241 0.326499 0  1 0.9 0  1 0.8 0  1 0.7 0  1 0.6 0  1 0.5 0  1 0.4 0  1 0.3 0  1 0.2 0  1 0.1 0  0.9 0 0  0.8 0 0  0.7 0 0  0.6 0 0  0.5 0 0  0.4 0 0  0.3 0 0  0.2 0 0  0.1 0 0  0.1 1 0  0.2 1 0  0.3 1 0  0.4 1 0  0.5 1 0  0.6 1 0  0.7 1 0  0.8 1 0  0.9 1 0  0 0.1 0  0 0.2 0  0 0.3 0  0 0.4 0  0 0.5 0  0 0.6 0  0 0.7 0  0 0.8 0  0 0.9 0  0.535686 0.5031910000000001 0  0.753987 0.733359 0  0.167145 0.741436 0  0.173378 0.257204 0  0.733497 0.159862 0  0.554096 0.15788 0  0.849187 0.479053 0  0.488793 0.838452 0  0.138507 0.5592 0  0.30686 0.154944 0  0.348904 0.890523 0  0.058006 0.065099 0  0.06984899999999999 0.937917 0  0.93633 0.939704 0  0.934625 0.053613 0  0.343397 0.333452 0  0.473272 0.639943 0  0.433266 0.638072 0  0.415174 0.58269 0  0.533435 0.545042 0  0.390848 0.340652 0  0.53655 0.320242 0  0.127966 0.393775 0  0.83861 0.850455 0  0.635242 0.8551299999999999 0  0.852158 0.633441 0  0.653427 0.626848 0  0.861226 0.24292 0  0.166128 0.12976 0  0.216875 0.8698709999999999 0  0.458305 0.11179 0  0.84446 0.101633 0  0.202024 0.642528 0  0.644825 0.115855 0  0.671342 0.218358 0  0.251354 0.286186 0  0.262388 0.75153 0  0.063044 0.751571 0  0.068189 0.242962 0  0.435781 0.9053949999999999 0  0.934144 0.451133 0  0.568393 0.237622 0  0.814984 0.395506 0  0.752951 0.517227 0  0.456254 0.780699 0  0.073352 0.531116 0  0.337731 0.206071 0  0.363213 0.960371 0  0.330742 0.363592 0  0.516613 0.55705 0  0.369057 0.332992 0  0.500926 0.617309 0  0.498004 0.665534 0  0.412142 0.61178 0  0.454233 0.6366039999999999 0  0.422782 0.567496 0  0.541193 0.5214800000000001 0  0.439761 0.65557 0  0.5163 0.533672 0  0.414775 0.64562 0  0.40073 0.576135 0  0.430362 0.5880339999999999 0  0.385432 0.351492 0  0.400298 0.335397 0  0.398325 0.348194 0  0.528702 0.314885 0  0.540814 0.322334 0  0.534477 0.322953 0  0.619095 0.743583 0  0.885162 0.737972 0  0.08076 0.668849 0  0.90734 0.36634 0  0.09468699999999999 0.868937 0  0.759838 0.912152 0  0.901518 0.540898 0  0.747285 0.607479 0  0.229182 0.071641 0  0.06915399999999999 0.450091 0  0.244775 0.203309 0  0.076534 0.331755 0  0.897847 0.167826 0  0.578909 0.911415 0  0.07713299999999999 0.146341 0  0.477215 0.203448 0  0.922631 0.869341 0  0.517415 0.074785 0  0.297026 0.827793 0  0.7832710000000001 0.246505 0  0.74519 0.061079 0  0.36033 0.069068 0  0.210313 0.475228 0  0.859426 0.928758 0  0.5745479999999999 0.609182 0  0.243069 0.383398 0  0.283099 0.934598 0  0.417416 0.843141 0  0.643942 0.553164 0  0.112687 0.079336 0  0.281357 0.658386 0  0.765043 0.436177 0  0.611361 0.198486 0  0.234496 0.58911 0  0.206479 0.702638 0  0.679608 0.155818 0  0.62682 0.259978 0  0.690538 0.264164 0  0.448938 0.956308 0  0.808154 0.328403 0  0.379583 0.91913 0  0.308083 0.297769 0  0.312358 0.730249 0  0.563101 0.278576 0  0.435597 0.746198 0  0.385475 0.225229 0  0.572248 0.518034 0  0.357864 0.35422 0  0.497647 0.641694 0  0.458101 0.655768 0  0.360474 0.310727 0  0.467038 0.620139 0  0.47798 0.659909 0  0.41102 0.628072 0  0.48324 0.609015 0  0.427544 0.617941 0  0.388633 0.328253 0  0.405336 0.599404 0  0.408351 0.565178 0  0.42395 0.600985 0  0.431562 0.576523 0  0.424905 0.6551979999999999 0  0.398064 0.58782 0  0.427739 0.557934 0  0.5192909999999999 0.303443 0  0.53142 0.320293 0  0.5449000000000001 0.323642 0  0.537166 0.323513 0  0.153974 0.920841 0  0.9181859999999999 0.67343 0  0.759946 0.820588 0  0.5375259999999999 0.783091 0  0.816532 0.545843 0  0.813991 0.178083 0  0.836774 0.702023 0  0.149815 0.318856 0  0.662287 0.923338 0  0.680146 0.791192 0  0.708961 0.663172 0  0.9372779999999999 0.287318 0  0.574622 0.6881660000000001 0  0.5894740000000001 0.076262 0  0.502822 0.926683 0  0.222269 0.811068 0  0.380457 0.164786 0  0.15321 0.684154 0  0.458063 0.051413 0  0.161702 0.056026 0  0.199351 0.198818 0  0.298946 0.09553200000000001 0  0.902465 0.795949 0  0.121139 0.791477 0  0.906269 0.112287 0  0.056109 0.822332 0  0.512172 0.13237 0  0.940964 0.741805 0  0.888887 0.408777 0  0.354543 0.825964 0  0.808736 0.068638 0  0.068507 0.394071 0  0.719105 0.563843 0  0.247287 0.149664 0  0.293062 0.237128 0  0.240524 0.434997 0  0.141255 0.623289 0  0.945202 0.160621 0  0.502914 0.247629 0  0.144669 0.480811 0  0.665025 0.060817 0  0.728047 0.224344 0  0.861995 0.313312 0  0.200068 0.534235 0  0.253262 0.965623 0  0.893804 0.49307 0  0.604391 0.572456 0  0.947088 0.345347 0  0.439372 0.227307 0  0.629847 0.159823 0  0.273405 0.880181 0  0.302744 0.776823 0  0.781502 0.295365 0  0.275342 0.349602 0  0.7283849999999999 0.472798 0  0.229136 0.246478 0  0.807794 0.480346 0  0.709476 0.112786 0  0.275506 0.694991 0  0.771674 0.394419 0  0.449715 0.861802 0  0.419159 0.799696 0  0.674851 0.503139 0  0.280443 0.61016 0  0.572443 0.192538 0  0.393113 0.87525 0  0.405555 0.948428 0  0.330942 0.934103 0  0.540509 0.597101 0  0.312763 0.6689310000000001 0  0.254368 0.540179 0  0.595265 0.25915 0  0.606679 0.234099 0  0.657131 0.279138 0  0.722458 0.279478 0  0.333 0.308056 0  0.351529 0.246142 0  0.455714 0.7257940000000001 0  0.585239 0.295143 0  0.340062 0.72492 0  0.545593 0.293773 0  0.555449 0.545426 0  0.414311 0.737314 0  0.590854 0.502323 0  0.350507 0.368444 0  0.484423 0.625665 0  0.483899 0.674542 0  0.378137 0.317274 0  0.446416 0.646404 0  0.373532 0.347654 0  0.446876 0.619769 0  0.466106 0.666068 0  0.437545 0.609254 0  0.434988 0.565726 0  0.41462 0.656829 0  0.418803 0.556961 0  0.398425 0.327446 0  0.517803 0.310421 0  0.549516 0.322918 0  0.57701 0.842889 0  0.8291269999999999 0.773906 0  0.643235 0.684732 0  0.134281 0.207734 0  0.865997 0.055966 0  0.680959 0.723345 0  0.165229 0.8415550000000001 0  0.54558 0.959672 0  0.783726 0.656439 0  0.913315 0.595533 0  0.699439 0.860667 0  0.785839 0.125076 0  0.551673 0.037713 0  0.9200970000000001 0.223214 0  0.206406 0.299726 0  0.087064 0.596401 0  0.935644 0.394252 0  0.964557 0.252582 0  0.230124 0.928346 0  0.120579 0.271764 0  0.8572149999999999 0.524082 0  0.7670979999999999 0.5551469999999999 0  0.936094 0.507131 0  0.804064 0.59585 0  0.700565 0.608273 0  0.429773 0.174231 0  0.117746 0.727333 0  0.5389620000000001 0.730231 0  0.862761 0.359173 0  0.821444 0.284046 0  0.193552 0.35818 0  0.234923 0.505555 0  0.193209 0.421217 0  0.220144 0.755896 0  0.594015 0.131642 0  0.283813 0.195855 0  0.517519 0.213961 0  0.553509 0.639116 0  0.280391 0.378018 0  0.852183 0.436817 0  0.746983 0.197173 0  0.821806 0.221318 0  0.449853 0.828453 0  0.883758 0.453926 0  0.183484 0.589542 0  0.348384 0.129314 0  0.255254 0.838525 0  0.504849 0.798516 0  0.320344 0.863432 0  0.611669 0.525425 0  0.265864 0.804962 0  0.72056 0.521442 0  0.613372 0.6101220000000001 0  0.481262 0.881068 0  0.655778 0.191988 0  0.701921 0.196918 0  0.5658260000000001 0.5731810000000001 0  0.46914 0.240927 0  0.343219 0.173284 0  0.888786 0.278502 0  0.244113 0.6750930000000001 0  0.739546 0.417914 0  0.784023 0.355942 0  0.326805 0.265549 0  0.248616 0.6
[...]
<PointData  Vectors="f_21"> 
<DataArray  type="Float64"  Name="f_21"  NumberOfComponents="3" format="ascii">8.5940143521456280e-01 9.6092671830056986e-02 0.0000000000000000e+00  8.3757710158494536e-01 1.0601332336334078e-01 0.0000000000000000e+00  7.6304813175458674e-01 1.2375036112854872e-01 0.0000000000000000e+00  6.9272325588879191e-01 1.3019220317504906e-01 0.0000000000000000e+00  6.2350426199247133e-01 1.2985224016685493e-01 0.0000000000000000e+00  4.9580496387976469e-01 1.3885215022858577e-01 0.0000000000000000e+00  4.1363044821747069e-01 1.4311218913466706e-01 0.0000000000000000e+00  3.0442002926295952e-01 2.3279855908465391e-01 0.0000000000000000e+00  2.4847358131667829e-01 2.8573157794130805e-01 0.0000000000000000e+00  2.2742620297794469e-01 2.9809150819875463e-01 0.0000000000000000e+00  1.9373949615027838e-01 2.9190074192893328e-01 0.0000000000000000e+00  1.7497908127322256e-01 2.7286629680049407e-01 0.0000000000000000e+00  1.5032300126972623e-01 2.1419784386022767e-01 0.0000000000000000e+00  1.0788748660092884e-01 1.0861195350429265e-01 0.0000000000000000e+00  5.8890392222268197e-02 4.4159413007364784e-02 0.0000000000000000e+00  2.8663132890371520e-02 2.7483200989010474e-03 0.0000000000000000e+00  1.8994347554043514e-02 -3.5807204675320781e-02 0.0000000000000000e+00  3.0582718533229757e-02 -8.5556386315416344e-02 0.0000000000000000e+00  5.6130299201091104e-02 -1.3651265280921518e-01 0.0000000000000000e+00  9.8982630251909218e-02 -1.9360042413940481e-01 0.0000000000000000e+00  1.7373598509151650e-01 -2.6220378758210033e-01 0.0000000000000000e+00  2.3367880882611908e-01 -2.8875309851601921e-01 0.0000000000000000e+00  2.9341704204014230e-01 -2.7243865213511809e-01 0.0000000000000000e+00  4.6170836740658000e-01 -2.8011187999082615e-01 0.0000000000000000e+00  5.8735263860973708e-01 -3.0101143040407896e-01 0.0000000000000000e+00  6.8939126743469692e-01 -2.9515181345986319e-01 0.0000000000000000e+00  8.3447502332966905e-01 -2.8128291676782052e-01 0.0000000000000000e+00  9.0453842892588932e-01 -2.4659098906435195e-01 0.0000000000000000e+00  9.3432568270797589e-01 -2.0984305802173514e-01 0.0000000000000000e+00  9.4780127438944239e-01 -1.8327962101736506e-01 0.0000000000000000e+00  9.8964856344994923e-01 -1.8213577504354617e-01 0.0000000000000000e+00  1.0572155514667030e+00 -1.9310136006366238e-01 0.0000000000000000e+00  1.0922400392907476e+00 -2.0203855871655202e-01 0.0000000000000000e+00  1.1078960250407279e+00 -2.1523199781825586e-01 0.0000000000000000e+00  1.1088730183696087e+00 -2.3054515733815276e-01 0.0000000000000000e+00  1.1135424133872829e+00 -2.4792599419939457e-01 0.0000000000000000e+00  1.1241726173214874e+00 -2.5542743368625331e-01 0.0000000000000000e+00  1.1518149669058038e+00 -2.6775549501884488e-01 0.0000000000000000e+00  1.2046265607272912e+00 -2.8494772865485263e-01 0.0000000000000000e+00  1.2280378957059508e+00 -2.8374995641006301e-01 0.0000000000000000e+00  1.2602600589042399e+00 -2.7142158045390208e-01 0.0000000000000000e+00  1.2752394740593327e+00 -2.5006253350870905e-01 0.0000000000000000e+00  1.2774216334866246e+00 -2.2874650545374919e-01 0.0000000000000000e+00  1.2670578015065912e+00 -2.0746722766531012e-01 0.0000000000000000e+00  1.2458952817480169e+00 -1.9451346627987937e-01 0.0000000000000000e+00  1.2193231243477589e+00 -2.0202899457539858e-01 0.0000000000000000e+00  1.1912719743275948e+00 -2.1158889512190965e-01 0.0000000000000000e+00  1.1726136111076935e+00 -2.0779636461611251e-01 0.0000000000000000e+00  1.1797073493677392e+00 -1.9661409083459655e-01 0.0000000000000000e+00  1.1963523437760866e+00 -1.8939075917680953e-01 0.0000000000000000e+00  1.2210761610572001e+00 -1.8323324389816148e-01 0.0000000000000000e+00  1.2493026499492832e+00 -1.7993944637293963e-01 0.0000000000000000e+00  1.2759981625241992e+00 -1.6972145478746184e-01 0.0000000000000000e+00  1.2908170288569476e+00 -1.5226717177398982e-01 0.0000000000000000e+00  1.3086333493621680e+00 -1.2342659587909352e-01 0.0000000000000000e+00  1.3236850675943814e+00 -9.0647362686266830e-02 0.0000000000000000e+00  1.3323964733066325e+00 -6.2781615692964796e-02 0.0000000000000000e+00  1.3448960061975621e+00 -3.5523335657565880e-02 0.0000000000000000e+00  1.3592058855381295e+00 -1.4135680102766156e-02 0.0000000000000000e+00  1.3673043805533798e+00 5.1555009820562388e-03 0.0000000000000000e+00  1.3724450647759252e+00 2.6329539404557810e-02 0.0000000000000000e+00  1.3695696300953992e+00 4.3707959922755127e-02 0.0000000000000000e+00  1.3581295139740512e+00 6.2057699179638749e-02 0.0000000000000000e+00  1.3433962979534300e+00 7.1831415105552396e-02 0.0000000000000000e+00  1.3387576849436797e+00 7.3823684244961010e-02 0.0000000000000000e+00  1.3249935184340345e+00 8.6774430437507433e-02 0.0000000000000000e+00  1.3016254850036408e+00 9.8539322254421774e-02 0.0000000000000000e+00  1.2354610024814650e+00 1.1581363090882224e-01 0.0000000000000000e+00  1.1738302807190593e+00 1.2602985320960958e-01 0.0000000000000000e+00  1.1079505286642759e+00 1.2168563479725315e-01 0.0000000000000000e+00  1.0705034610798081e+00 1.1577470413124566e-01 0.0000000000000000e+00  1.0328698486462167e+00 1.1486847236431501e-01 0.0000000000000000e+00  9.8616251234410579e-01 1.1393258134788195e-01 0.0000000000000000e+00  9.2092927453146978e-01 1.0758457593939998e-01 0.0000000000000000e+00  8.8222622594541511e-01 9.7573740779732923e-02 0.0000000000000000e+00  8.6949542504555921e-01 9.3576625979956363e-02 0.0000000000000000e+00  8.6059286979193639e-01 9.5242531841827849e-02 0.0000000000000000e+00  1.2234345924320489e+00 4.4583519176977912e-03 0.0000000000000000e+00  1.2864488675562316e+00 1.5392859825969826e-01 0.0000000000000000e+00  0.0000000000000000e+00 0.0000000000000000e+00 0.0000000000000000e+00  0.0000000000000000e+00 0.0000000000000000e+00 0.0000000000000000e+00  8.5811732018696230e-01 9.7093579734823479e-02 0.0000000000000000e+00  8.5574305676563378e-01 9.8460119289401585e-02 0.0000000000000000e+00  8.5197638577658696e-01 1.0027429853849540e-01 0.0000000000000000e+00  8.4629778663343203e-01 1.0276255566055731e-01 0.0000000000000000e+00  8.2836141767788740e-01 1.0899034403420206e-01 0.0000000000000000e+00  8.1481317910140683e-01 1.1291983972720054e-01 0.0000000000000000e+00  7.9479373951766563e-01 1.1779575838734888e-01 0.0000000000000000e+00  7.3271188940959298e-01 1.2764017905696259e-01 0.0000000000000000e+00  5.7822307339502788e-01 1.3090233949321625e-01 0.0000000000000000e+00  5.3872521333974477e-01 1.3383925239019601e-01 0.0000000000000000e+00  3.6803824716830741e-01 1.8183165905939366e-01 0.0000000000000000e+00  3.3462462918671065e-01 2.0723639901019669e-01 0.0000000000000000e+00  2.7963590208720929e-01 2.5472365281938802e-01 0.0000000000000000e+00  2.6193546520034938e-01 2.7208828132604718e-01 0.0000000000000000e+00  2.1210030474391756e-01 2.9527459628867520e-01 0.0000000000000000e+00  1.6863298029166096e-01 2.5832790420930440e-01 0.0000000000000000e+00  1.6045208748961223e-01 2.3925589453102081e-01 0.0000000000000000e+00  1.3781550012207358e-01 1.8626964232558485e-01 0.0000000000000000e+00  1.2360665623761179e-01 1.5135431820162656e-01 0.0000000000000000e+00  8.4004031504708684e-02 7.9149142290161123e-02 0.0000000000000000e+00  2.2970702196580671e-02 -6.1733054659059691e-02 0.0000000000000000e+00  1.3816128437008918e-01 -2.3245357377361217e-01 0.0000000000000000e+00  3.4616446808794016e-01 -2.8095436654593114e-01 0.0000000000000000e+00  3.9992849558314952e-01 -2.8561298562953480e-01 0.0000000000000000e+00  7.7342647176848334e-01 -2.9504891952322260e-01 0.0000000000000000e+00  8.6965158899744288e-01 -2.6507291419367507e-01 0.0000000000000000e+00  9.6062679681402552e-01 -1.7472900992984214e-01 0.0000000000000000e+00  1.1009329273737707e+00 -2.0685577963565457e-01 0.0000000000000000e+00  1.1114543976911477e+00 -2.4008829742359353e-01 0.0000000000000000e+00  1.1355037265015901e+00 -2.6015914094286130e-01 0.0000000000000000e+00  1.1719504439049682e+00 -2.7480767462978584e-01 0.0000000000000000e+00  1.1899274039057872e+00 -2.8073677384205314e-01 0.0000000000000000e+00  1.2420724034073920e+00 -2.7849515096131922e-01 0.0000000000000000e+00  1.2345210689398336e+00 -1.9750634266053005e-01 0.0000000000000000e+00  1.1747895490271523e+00 -2.0328813842027460e-01 0.0000000000000000e+00  1.2645848450326234e+00 -1.7428209102184486e-01 0.0000000000000000e+00  1.3171099421752368e+00 -1.0487555712882167e-01 0.0000000000000000e+00  1.3394373148977858e+00 -4.7355356240194879e-02 0.0000000000000000e+00  1.3705637539033975e+00 1.4248388074105653e-02 0.0000000000000000e+00  1.3641233380125817e+00 5.4739344194253588e-02 0.0000000000000000e+00  1.3497353187197938e+00 6.8854909601942377e-02 0.0000000000000000e+00  1.3334766906162729e+00 7.8366360531384197e-02 0.0000000000000000e+00  1.2766672280274938e+00 1.1133912676345632e-01 0.0000000000000000e+00  1.1411363933966527e+00 1.2362409471269924e-01 0.0000000000000000e+00  9.5100418251198005e-01 1.1066616036907280e-01 0.0000000000000000e+00  8.9595347367865397e-01 1.0183131945921492e-01 0.0000000000000000e+00  8.7381790704610007e-01 9.4793174482805928e-02 0.0000000000000000e+00  8.6679158538946721e-01 9.3658388661267883e-02 0.0000000000000000e+00  8.6418300578664786e-01 9.4181886582540161e-02 0.0000000000000000e+00  8.6213950966164266e-01 9.4718579948291873e-02 0.0000000000000000e+00  1.2907769613059854e+00 3.7168873783796734e-02 0.0000000000000000e+00  1.3701640649623010e+00 5.9292657152234057e-02 0.0000000000000000e+00  1.4436635655951446e+00 6.5451344323162852e-02 0.0000000000000000e+00  1.5097184358254161e+00 5.6724082462261259e-02 0.0000000000000000e+00  1.5441470585606849e+00 2.6562365883783752e-02 0.0000000000000000e+00  1.5159925390491795e+00 -4.0922589936339942e-03 0.0000000000000000e+00  1.4316851231452652e+00 3.8031357887902318e-04 0.0000000000000000e+00  1.3514577756877930e+00 5.2677797867669220e-02 0.0000000000000000e+00  1.3102782333846203e+00 1.1303261309025418e-01 0.0000000000000000e+00  1.1851724910624635e+00 1.8298461042011196e-01 0.0000000000000000e+00  1.0805698956579093e+00 2.1382854905406984e-01 0.0000000000000000e+00  9.7917743782965050e-01 2.3944096739260673e-01 0.0000000000000000e+00  8.8466273541433194e-01 2.5232334419985786e-01 0.0000000000000000e+00  7.9382587369710156e-01 2.4397228379492394e-01 0.0000000000000000e+00  6.9249085126769017e-01 2.1385023154655750e-01 0.0000000000000000e+00  5.6049772999198721e-01 1.6734132660670745e-01 0.0000000000000000e+00  3.9088483199668139e-01 1.2121805464160940e-01 0.0000000000000000e+00  2.0189353439465990e-01 8.4349840016041094e-02 0.0000000000000000e+00  2.1370655609543610e-01 -8.6846787392610106e-02 0.0000000000000000e+00  4.1493859378769560e-01 -1.6139505612690450e-01 0.0000000000000000e+00  5.7182135083575236e-01 -2.7100356606937986e-01 0.0000000000000000e+00  6.5863108086618705e-01 -3.2999030696363896e-01 0.0000000000000000e+00  7.2840074479135453e-01 -2.9050950621917948e-01 0.0000000000000000e+00  8.2076132020752501e-01 -2.1334172692477266e-01 0.0000000000000000e+00  9.2917797856821283e-01 -1.4264356220034377e-01 0.0000000000000000e+00  1.0373356338739337e+00 -9.2030352274090829e-02 0.0000000000000000e+00  1.1343513571237658e+00 -5.2993753386937820e-02 0.0000000000000000e+00  0.0000000000000000e+00 0.0000000000000000e+00 0.0000000000000000e+00  0.0000000000000000e+00 0.0000000000000000e+00 0.0000000000000000e+00  0.0000000000000000e+00 0.0000000000000000e+00 0.0000000000000000e+00  0.0000000000000000e+00 0.0000000000000000e+00 0.0000000000000000e+00  0.0000000000000000e+00 0.0000000000000000e+00 0.0000000000000000e+00  0.0000000000000000e+00 0.0000000000000000e+00 0.0000000000000000e+00  0.0000000000000000e+00 0.0000000000000000e+00 0.0000000000000000e+00  0.0000000000000000e+00 0.0000000000000000e+00 0.0000000000000000e+00  0.0000000000000000e+00 0.0000000000000000e+00 0.0000000000000000e+00  1.2983979780848007e+00 -1.3971461947951549e-01 0.0000000000000000e+00  1.1915990249554065e+00 -4.4518409461787742e-02 0.0000000000000000e+00  1.7262598555193126e-01 2.3631028052871744e-03 0.0000000000000000e+00  2.0635070353504090e-01 -1.8542106739380428e-02 0.0000000000000000e+00  1.0469027633598094e+00 1.7286545294723921e-01 0.0000000000000000e+00  8.2928779287966570e-01 1.8550838635230316e-01 0.0000000000000000e+00  1.4324307266064682e+00 2.9372933959756951e-02 0.0000000000000000e+00  8.0584467333063303e-01 -2.2478385430827161e-01 0.0000000000000000e+00  2.2285849362750888e-02 5.0108575402431907e-04 0.0000000000000000e+00  4.9517957027827286e-01 1.1168223728031687e-01 0.0000000000000000e+00  5.8612416448465909e-01 -2.7511660615768602e-01 0.0000000000000000e+00  9.8633909830477692e-02 2.5132540189968224e-02 0.0000000000000000e+00  1.2246756081799799e-01 -3.1252442606959599e-02 0.0000000000000000e+00  1.2026073625026219e+00 -1.6393535479046515e-02 0.0000000000000000e+00  1.2346757185026913e+00 1.5245944273883452e-01 0.0000000000000000e+00  2.2429919423565642e-01 1.3913971859130417e-01 0.0000000000000000e+00  1.1402507287456218e+00 -1.9287557345967304e-01 0.0000000000000000e+00  1.1405677793775189e+00 -2.2504410137224862e-01 0.0000000000000000e+00  1.2176554370472414e+00 -2.4383257046205148e-01 0.0000000000000000e+00  1.2519903928619303e+00 -1.4085648361199909e-01 0.0000000000000000e+00  2.1456346965334611e-01 2.5157506353443321e-01 0.0000000000000000e+00  8.5713126970541031e-01 9.6482538830319667e-02 0.0000000000000000e+00  5.7580628510722424e-02 -3.4641590631118033e-02 0.0000000000000000e+00  1.1775846575229183e+00 -3.8211702488960497e-02 0.0000000000000000e+00  9.7634640870660017e-01 -1.3367242171787080e-01 0.0000000000000000e+00  1.3641141035492677e+00 7.9228481642355693e-03 0.0000000000000000e+00  1.2078086770234502e+00 -5.6697062824958955e-02 0.0000000000000000e+00  1.2392514571486335e+00 9.1125906568714943e-02 0.0000000000000000e+00  2.7643498004276473e-01 3.2506380379158220e-02 0.0000000000000000e+00  3.5978306697264290e-01 -1.0463205311535122e-01 0.0000000000000000e+00  7.1576076776112751e-01 1.9782486506305993e-01 0.0000000000000000e+00  1.1523215982432069e+00 1.6182782319895864e-01 0.0000000000000000e+00  8.3296119610207581e-02 -8.4347634845863481e-03 0.0000000000000000e+00  9.3768966093030792e-01 2.0457798393084042e-01 0.0000000000000000e+00  9.9233080312502009e-01 1.6000026890761254e-01 0.0000000000000000e+00  2.6462750156397485e-01 1.4157240424618776e-02 0.0000000000000000e+00  3.0223403385869835e-01 -8.6903182849188063e-02 0.0000000000000000e+00  6.5092856824208345e-02 2.1349912665742425e-02 0.0000000000000000e+00  8.1131289483661120e-02 -2.3037901067410219e-02 0.0000000000000000e+00  6.9934461891940869e-01 -2.9330779267508295e-01 0.0000000000000000e+00  1.4878768401329927e+00 2.4013661548771943e-02 0.0000000000000000e+00  8.6105617058615758e-01 1.3885422093693744e-01 0.0000000000000000e+00  1.3847287375349957e+00 4.5289758223308337e-02 0.0000000000000000e+00  1.3606974698290586e+00 1.5763601420502399e-02 0.0000000000000000e+00  8.1484999227766963e-01 -2.0914140657543615e-01 0.0000000000000000e+00  1.5829905877146392e-02 -1.6493724593886424e-03 0.0000000000000000e+00  5.0561091572878736e-01 1.2796852036601847e-01 0.0000000000000000e+00  6.1720082893818295e-01 -3.0406639001846403e-01 0.0000000000000000e+00  1.5969538935825189e-01 1.1213048206829039e-01 0.0000000000000000e+00  1.2371383313595476e+00 -1.5628880818377300e-01 0.0000000000000000e+00  2.2956915242202758e-01 2.0014990854207035e-01 0.0000000000000000e+00  1.1670116099220149e+00 -1.6726569450127626e-01 0.0000000000000000e+00  1.1049857853030067e+00 -1.6570398763323071e-01 0.0000000000000000e+00  1.1724382802816542e+00 -2.4760213954776375e-01 0.0000000000000000e+00  1.1434486905685972e+00 -2.0770762032698431e-01 0.0000000000000000e+00  1.2433287301439282e+00 -2.3161449903388825e-01 0.0000000000000000e+00  1.2789344892023840e+00 -1.3426803746899890e-01 0.0000000000000000e+00  1.1217066235293633e+00 -2.2073093032735480e-01 0.0000000000000000e+00  1.2640668828689041e+00 -1.5810346769487202e-01 0.0000000000000000e+00  1.1321523737627990e+00 -2.4403824620374606e-01 0.0000000000000000e+00  1.2289089275320020e+00 -2.6571465751182161e-01 0.0000000000000000e+00  1.2083418723553778e+00 -2.2179714651799259e-01 0.0000000000000000e+00  1.8934961908328002e-01 2.3810217147157348e-01 0.0000000000000000e+00  2.2711482734163979e-01 2.7385801358308753e-01 0.0000000000000000e+00  1.9746615990772179e-01 2.6894501087907746e-01 0.0000000000000000e+00  8.4916836453073408e-01 9.9460855411747096e-02 0.0000000000000000e+00  8.6016386537399714e-01 9.5500472135497644e-02 0.0000000000000000e+00  8.5769052027102921e-01 9.6518099100713406e-02 0.0000000000000000e+00  1.0595876675553451e+00 -1.0033477281276264e-01 0.0000000000000000e+00  1.3131128386435520e+00 2.4958017155693912e-03 0.0000000000000000e+00  4.8815172260467984e-02 2.5207000962795153e-02 0.0000000000000000e+00  1.4144924783397699e+00 3.4237017576069291e-02 0.0000000000000000e+00  1.4751932399387946e-01 -1.2838179789508129e-02 0.0000000000000000e+00  1.0529378880808626e+00 -8.3081847868131470e-02 0.0000000000000000e+00  1.4590182206668534e+00 2.5667413264100328e-02 0.0000000000000000e+00  1.2941306502487382e+00 -1.3937700280204576e-02 0.0000000000000000e+00  4.1258253644283821e-01 9.4174337748533024e-02 0.0000000000000000e+00  2.0445652793013403e-02 -1.8890892286145794e-02 0.0000000000000000e+00  3.6124716482254943e-01 4.1171157589707651e-02 0.0000000000000000e+00  5.9293586312217206e-02 -3.3255146487105258e-02 0.0000000000000000e+00  1.2302790633263812e+00 1.1453741622244414e-01 0.0000000000000000e+00  8.6810469434395143e-01 -1.9673907007665395e-01 0.0000000000000000e+00  1.1845132641847941e-01 8.6740727319533761e-04 0.0000000000000000e+00  7.2058015984252966e-01 1.6296362917223081e-01 0.0000000000000000e+00  1.2426427730655838e+00 -5.5199883321205888e-03 0.0000000000000000e+00  7.9515041339077697e-01 2.2154123579557056e-01 0.0000000000000000e+00  4.7836886899196618e-01 -1.8631036551888555e-01 0.0000000000000000e+00  1.1462569596844290e+00 1.2054968962070714e-01 0.0000000000000000e+00  1.0375979244952065e+00 2.0698016052273666e-01 0.0000000000000000e+00  6.1445408922778932e-01 1.7061865303955312e-01 0.0000000000000000e+00  2.5796778859636969e-02 -1.9329540553873675e-02 0.0000000000000000e+00  1.1364162653970959e+00 -4.8555384753259954e-02 0.0000000000000000e+00  1.1884155022156788e+00 -1.0460095094351249e-01 0.0000000000000000e+00  1.0870820188581876e-01 -3.9555000286866640e-03 0.0000000000000000e+00  5.0335873994557634e-01 -2.2250171296764867e-01 0.0000000000000000e+00  6.8665726601791566e-01 -2.7715703985215601e-01 0.0000000000000000e+00  1.2722719606145525e+00 -4.7633547184975096e-02 0.0000000000000000e+00  1.9711629677849402e-01 4.0705778508882892e-02 0.0000000000000000e+00  1.2892433812017792e-01 -9.0456710943437324e-02 0.0000000000000000e+00  1.3863981914212486e+00 4.3932799888340750e-02 0.0000000000000000e+00  9.1031467664824328e-01 1.6548838425230514e-01 0.0000000000000000e+00  3.8169503230868616e-02 -2.9210601321325372e-02 0.0000000000000000e+00  1.6153895928101117e-01 -1.5209019991758587e-02 0.0000000000000000e+00  9.8499932449294891e-01 1.8398058246756047e-01 0.0000000000000000e+00  9.4604597023949399e-01 1.3718293175123536e-01 0.0000000000000000e+00  1.0362891136331376e+00 1.4356583365680237e-01 0.0000000000000000e+00  7.0321727274679413e-01 -3.0549760744104132e-01 0.0000000000000000e+00  1.2913153348447133e+00 6.1188225389096837e-02 0.0000000000000000e+00  6.2898768504758296e-01 -2.9972982296178047e-01 0.0000000000000000e+00  2.9736615255372617e-01 6.9648879469915354e-02 0.0000000000000000e+00  3.0487377881667244e-01 -1.5389316314759860e-01 0.0000000000000000e+00  8.6642304709403684e-01 1.1387047239950089e-01 0.0000000000000000e+00  8.5619924324676211e-01 -2.0275093038388817e-01 0.0000000000000000e+00  5.6709064086292538e-01 1.5611438568091235e-01 0.0000000000000000e+00  1.2861789651425715e+00 -1.0471863899443994e-01 0.0000000000000000e+00  1.8138254196646689e-01