<?xml version="1.0"?>
<VTKFile type="UnstructuredGrid"  version="0.1"  >
<UnstructuredGrid>
<Piece  NumberOfPoints="2868" NumberOfCells="5400">
<Points>
<DataArray  type="Float64"  NumberOfComponents="3"  format="ascii">0.534923 0.326073 0  0.510642 0.314196 0  0.466125 0.293082 0  0.436448 0.281205 0  0.409468 0.275927 0  0.368998 0.270648 0  0.35281 0.275927 0  0.381139 0.302319 0  0.405421 0.326073 0  0.410817 0.33531 0  0.408119 0.349826 0  0.400025 0.357744 0  0.375743 0.368301 0  0.329878 0.392055 0  0.297502 0.432963 0  0.282663 0.476511 0  0.285361 0.524018 0  0.298851 0.572845 0  0.317737 0.6045160000000001 0  0.337972 0.6361869999999999 0  0.360904 0.674457 0  0.368998 0.69953 0  0.359555 0.7219640000000001 0  0.360904 0.757594 0  0.370347 0.766831 0  0.381139 0.762872 0  0.390582 0.741758 0  0.404072 0.720644 0  0.424307 0.707448 0  0.447239 0.702169 0  0.480964 0.704808 0  0.479615 0.6889729999999999 0  0.468823 0.675776 0  0.447239 0.6691780000000001 0  0.428354 0.6691780000000001 0  0.410817 0.6639 0  0.404072 0.653343 0  0.395978 0.628269 0  0.387884 0.59132 0  0.389233 0.576804 0  0.397327 0.557009 0  0.410817 0.547772 0  0.424307 0.546452 0  0.437797 0.55305 0  0.44589 0.5662469999999999 0  0.441843 0.582082 0  0.439145 0.5979179999999999 0  0.449937 0.609795 0  0.468823 0.603196 0  0.479615 0.59 0  0.489058 0.570205 0  0.494454 0.546452 0  0.505246 0.522699 0  0.522783 0.509502 0  0.55246 0.494986 0  0.586185 0.484429 0  0.615863 0.48047 0  0.64554 0.473872 0  0.6671240000000001 0.461995 0  0.683312 0.451438 0  0.696802 0.435603 0  0.703547 0.417128 0  0.7116400000000001 0.393374 0  0.7183850000000001 0.37226 0  0.7251300000000001 0.364342 0  0.739969 0.353785 0  0.7453650000000001 0.344548 0  0.7453650000000001 0.327393 0  0.737271 0.318155 0  0.7183850000000001 0.316835 0  0.7008490000000001 0.319475 0  0.677916 0.318155 0  0.650936 0.316835 0  0.610467 0.318155 0  0.57944 0.324753 0  0.559205 0.328712 0  0.5389699999999999 0.326073 0  1 1 0  1 0 0  0 0 0  0 1 0  0.532238 0.32476 0  0.528748 0.323052 0  0.52421 0.320833 0  0.518311 0.317947 0  0.503447 0.310783 0  0.494093 0.306347 0  0.481933 0.30058 0  0.452151 0.28749 0  0.392327 0.273691 0  0.379141 0.271971 0  0.360474 0.283066 0  0.369797 0.291752 0  0.391424 0.31238 0  0.399335 0.32012 0  0.40958 0.341964 0  0.393939 0.36039 0  0.386028 0.36383 0  0.364248 0.374254 0  0.349304 0.381994 0  0.315801 0.409841 0  0.292986 0.551616 0  0.350934 0.657818 0  0.360127 0.737055 0  0.360566 0.748664 0  0.385245 0.753692 0  0.396447 0.732578 0  0.466301 0.703661 0  0.459439 0.672908 0  0.418442 0.666195 0  0.400553 0.642441 0  0.39255 0.612619 0  0.389913 0.60058 0  0.392752 0.568197 0  0.444131 0.573132 0  0.458149 0.606926 0  0.5005540000000001 0.533026 0  0.571522 0.489019 0  0.632637 0.476741 0  0.689177 0.444553 0  0.708121 0.403702 0  0.715453 0.38144 0  0.732406 0.359166 0  0.7453650000000001 0.337089 0  0.72906 0.317581 0  0.629879 0.317522 0  0.59293 0.321884 0  0.568003 0.326991 0  0.55202 0.327775 0  0.546493 0.327054 0  0.542241 0.326499 0  1 0.9 0  1 0.8 0  1 0.7 0  1 0.6 0  1 0.5 0  1 0.4 0  1 0.3 0  1 0.2 0  1 0.1 0  0.9 0 0  0.8 0 0  0.7 0 0  0.6 0 0  0.5 0 0  0.4 0 0  0.3 0 0  0.2 0 0  0.1 0 0  0.1 1 0  0.2 1 0  0.3 1 0  0.4 1 0  0.5 1 0  0.6 1 0  0.7 1 0  0.8 1 0  0.9 1 0  0 0.1 0  0 0.2 0  0 0.3 0  0 0.4 0  0 0.5 0  0 0.6 0  0 0.7 0  0 0.8 0  0 0.9 0  0.535686 0.5031910000000001 0  0.753987 0.733359 0  0.167145 0.741436 0  0.173378 0.257204 0  0.733497 0.159862 0  0.554096 0.15788 0  0.849187 0.479053 0  0.488793 0.838452 0  0.138507 0.5592 0  0.30686 0.154944 0  0.348904 0.890523 0  0.058006 0.065099 0  0.06984899999999999 0.937917 0  0.93633 0.939704 0  0.934625 0.053613 0  0.343397 0.333452 0  0.473272 0.639943 0  0.433266 0.638072 0  0.415174 0.58269 0  0.533435 0.545042 0  0.390848 0.340652 0  0.53655 0.320242 0  0.127966 0.393775 0  0.83861 0.850455 0  0.635242 0.8551299999999999 0  0.852158 0.633441 0  0.653427 0.626848 0  0.861226 0.24292 0  0.166128 0.12976 0  0.216875 0.8698709999999999 0  0.458305 0.11179 0  0.84446 0.101633 0  0.202024 0.642528 0  0.644825 0.115855 0  0.671342 0.218358 0  0.251354 0.286186 0  0.262388 0.75153 0  0.063044 0.751571 0  0.068189 0.242962 0  0.435781 0.9053949999999999 0  0.934144 0.451133 0  0.568393 0.237622 0  0.814984 0.395506 0  0.752951 0.517227 0  0.456254 0.780699 0  0.073352 0.531116 0  0.337731 0.206071 0  0.363213 0.960371 0  0.330742 0.363592 0  0.516613 0.55705 0  0.369057 0.332992 0  0.500926 0.617309 0  0.498004 0.665534 0  0.412142 0.61178 0  0.454233 0.6366039999999999 0  0.422782 0.567496 0  0.541193 0.5214800000000001 0  0.439761 0.65557 0  0.5163 0.533672 0  0.414775 0.64562 0  0.40073 0.576135 0  0.430362 0.5880339999999999 0  0.385432 0.351492 0  0.400298 0.335397 0  0.398325 0.348194 0  0.528702 0.314885 0  0.540814 0.322334 0  0.534477 0.322953 0  0.619095 0.743583 0  0.885162 0.737972 0  0.08076 0.668849 0  0.90734 0.36634 0  0.09468699999999999 0.868937 0  0.759838 0.912152 0  0.901518 0.540898 0  0.747285 0.607479 0  0.229182 0.071641 0  0.06915399999999999 0.450091 0  0.244775 0.203309 0  0.076534 0.331755 0  0.897847 0.167826 0  0.578909 0.911415 0  0.07713299999999999 0.146341 0  0.477215 0.203448 0  0.922631 0.869341 0  0.517415 0.074785 0  0.297026 0.827793 0  0.7832710000000001 0.246505 0  0.74519 0.061079 0  0.36033 0.069068 0  0.210313 0.475228 0  0.859426 0.928758 0  0.5745479999999999 0.609182 0  0.243069 0.383398 0  0.283099 0.934598 0  0.417416 0.843141 0  0.643942 0.553164 0  0.112687 0.079336 0  0.281357 0.658386 0  0.765043 0.436177 0  0.611361 0.198486 0  0.234496 0.58911 0  0.206479 0.702638 0  0.679608 0.155818 0  0.62682 0.259978 0  0.690538 0.264164 0  0.448938 0.956308 0  0.808154 0.328403 0  0.379583 0.91913 0  0.308083 0.297769 0  0.312358 0.730249 0  0.563101 0.278576 0  0.435597 0.746198 0  0.385475 0.225229 0  0.572248 0.518034 0  0.357864 0.35422 0  0.497647 0.641694 0  0.458101 0.655768 0  0.360474 0.310727 0  0.467038 0.620139 0  0.47798 0.659909 0  0.41102 0.628072 0  0.48324 0.609015 0  0.427544 0.617941 0  0.388633 0.328253 0  0.405336 0.599404 0  0.408351 0.565178 0  0.42395 0.600985 0  0.431562 0.576523 0  0.424905 0.6551979999999999 0  0.398064 0.58782 0  0.427739 0.557934 0  0.5192909999999999 0.303443 0  0.53142 0.320293 0  0.5449000000000001 0.323642 0  0.537166 0.323513 0  0.153974 0.920841 0  0.9181859999999999 0.67343 0  0.759946 0.820588 0  0.5375259999999999 0.783091 0  0.816532 0.545843 0  0.813991 0.178083 0  0.836774 0.702023 0  0.149815 0.318856 0  0.662287 0.923338 0  0.680146 0.791192 0  0.708961 0.663172 0  0.9372779999999999 0.287318 0  0.574622 0.6881660000000001 0  0.5894740000000001 0.076262 0  0.502822 0.926683 0  0.222269 0.811068 0  0.380457 0.164786 0  0.15321 0.684154 0  0.458063 0.051413 0  0.161702 0.056026 0  0.199351 0.198818 0  0.298946 0.09553200000000001 0  0.902465 0.795949 0  0.121139 0.791477 0  0.906269 0.112287 0  0.056109 0.822332 0  0.512172 0.13237 0  0.940964 0.741805 0  0.888887 0.408777 0  0.354543 0.825964 0  0.808736 0.068638 0  0.068507 0.394071 0  0.719105 0.563843 0  0.247287 0.149664 0  0.293062 0.237128 0  0.240524 0.434997 0  0.141255 0.623289 0  0.945202 0.160621 0  0.502914 0.247629 0  0.144669 0.480811 0  0.665025 0.060817 0  0.728047 0.224344 0  0.861995 0.313312 0  0.200068 0.534235 0  0.253262 0.965623 0  0.893804 0.49307 0  0.604391 0.572456 0  0.947088 0.345347 0  0.439372 0.227307 0  0.629847 0.159823 0  0.273405 0.880181 0  0.302744 0.776823 0  0.781502 0.295365 0  0.275342 0.349602 0  0.7283849999999999 0.472798 0  0.229136 0.246478 0  0.807794 0.480346 0  0.709476 0.112786 0  0.275506 0.694991 0  0.771674 0.394419 0  0.449715 0.861802 0  0.419159 0.799696 0  0.674851 0.503139 0  0.280443 0.61016 0  0.572443 0.192538 0  0.393113 0.87525 0  0.405555 0.948428 0  0.330942 0.934103 0  0.540509 0.597101 0  0.312763 0.6689310000000001 0  0.254368 0.540179 0  0.595265 0.25915 0  0.606679 0.234099 0  0.657131 0.279138 0  0.722458 0.279478 0  0.333 0.308056 0  0.351529 0.246142 0  0.455714 0.7257940000000001 0  0.585239 0.295143 0  0.340062 0.72492 0  0.545593 0.293773 0  0.555449 0.545426 0  0.414311 0.737314 0  0.590854 0.502323 0  0.350507 0.368444 0  0.484423 0.625665 0  0.483899 0.674542 0  0.378137 0.317274 0  0.446416 0.646404 0  0.373532 0.347654 0  0.446876 0.619769 0  0.466106 0.666068 0  0.437545 0.609254 0  0.434988 0.565726 0  0.41462 0.656829 0  0.418803 0.556961 0  0.398425 0.327446 0  0.517803 0.310421 0  0.549516 0.322918 0  0.57701 0.842889 0  0.8291269999999999 0.773906 0  0.643235 0.684732 0  0.134281 0.207734 0  0.865997 0.055966 0  0.680959 0.723345 0  0.165229 0.8415550000000001 0  0.54558 0.959672 0  0.783726 0.656439 0  0.913315 0.595533 0  0.699439 0.860667 0  0.785839 0.125076 0  0.551673 0.037713 0  0.9200970000000001 0.223214 0  0.206406 0.299726 0  0.087064 0.596401 0  0.935644 0.394252 0  0.964557 0.252582 0  0.230124 0.928346 0  0.120579 0.271764 0  0.8572149999999999 0.524082 0  0.7670979999999999 0.5551469999999999 0  0.936094 0.507131 0  0.804064 0.59585 0  0.700565 0.608273 0  0.429773 0.174231 0  0.117746 0.727333 0  0.5389620000000001 0.730231 0  0.862761 0.359173 0  0.821444 0.284046 0  0.193552 0.35818 0  0.234923 0.505555 0  0.193209 0.421217 0  0.220144 0.755896 0  0.594015 0.131642 0  0.283813 0.195855 0  0.517519 0.213961 0  0.553509 0.639116 0  0.280391 0.378018 0  0.852183 0.436817 0  0.746983 0.197173 0  0.821806 0.221318 0  0.449853 0.828453 0  0.883758 0.453926 0  0.183484 0.589542 0  0.348384 0.129314 0  0.255254 0.838525 0  0.504849 0.798516 0  0.320344 0.863432 0  0.611669 0.525425 0  0.265864 0.804962 0  0.72056 0.521442 0  0.613372 0.6101220000000001 0  0.481262 0.881068 0  0.655778 0.191988 0  0.701921 0.196918 0  0.5658260000000001 0.5731810000000001 0  0.46914 0.240927 0  0.343219 0.173284 0  0.888786 0.278502 0  0.244113 0.6750930000000001 0  0.739546 0.417914 0  0.784023 0.355942 0  0.326805 0.265549 0  0.248616 0.6
[...]
<PointData  Vectors="f_21"> 
<DataArray  type="Float64"  Name="f_21"  NumberOfComponents="3" format="ascii">1.4371454538192574e+00 6.5057232506935703e-01 0.0000000000000000e+00  1.3782849827777619e+00 6.6853517323135192e-01 0.0000000000000000e+00  1.1972024516914475e+00 6.7816604648866141e-01 0.0000000000000000e+00  1.0438673224683512e+00 6.5657253159903017e-01 0.0000000000000000e+00  9.0042552291934841e-01 6.1176312495305007e-01 0.0000000000000000e+00  6.7185378353735403e-01 5.2033856236594644e-01 0.0000000000000000e+00  5.3704980179630102e-01 4.3531827407768847e-01 0.0000000000000000e+00  3.9998112436643729e-01 4.8557012240041086e-01 0.0000000000000000e+00  3.2783073938249063e-01 5.4940498473635191e-01 0.0000000000000000e+00  2.9936969947354425e-01 5.6608417853724291e-01 0.0000000000000000e+00  2.5337127403883891e-01 5.5791057833913471e-01 0.0000000000000000e+00  2.2765455058720233e-01 5.3245197598907612e-01 0.0000000000000000e+00  1.9033585370256026e-01 4.5428122085873079e-01 0.0000000000000000e+00  1.1670631270488456e-01 2.8293645580620153e-01 0.0000000000000000e+00  4.0308239254330830e-02 1.3066187752018629e-01 0.0000000000000000e+00  4.8436312837170006e-03 8.4364647902410977e-03 0.0000000000000000e+00  7.2784366905626922e-03 -1.0478948737341293e-01 0.0000000000000000e+00  3.7558780729694437e-02 -2.2842245658987900e-01 0.0000000000000000e+00  8.3921980287097755e-02 -3.4013659494419018e-01 0.0000000000000000e+00  1.5634914300097555e-01 -4.5828898235254323e-01 0.0000000000000000e+00  2.8565028905971362e-01 -6.0052244277236810e-01 0.0000000000000000e+00  3.9153971668795640e-01 -6.5592834910394127e-01 0.0000000000000000e+00  4.9344531374608946e-01 -6.4401319505489463e-01 0.0000000000000000e+00  8.0442642483107185e-01 -7.1940346702074909e-01 0.0000000000000000e+00  1.0605767268396735e+00 -8.1076561805493019e-01 0.0000000000000000e+00  1.2688387656977342e+00 -8.4533613261871510e-01 0.0000000000000000e+00  1.5837215753695144e+00 -8.5107679503837563e-01 0.0000000000000000e+00  1.7369413256310668e+00 -7.9467303424459157e-01 0.0000000000000000e+00  1.8025456496016032e+00 -7.3167612775993340e-01 0.0000000000000000e+00  1.8378953372197970e+00 -6.9282738196748939e-01 0.0000000000000000e+00  1.9722421848770755e+00 -7.4535552118594106e-01 0.0000000000000000e+00  2.1761893696701136e+00 -8.1401428432670442e-01 0.0000000000000000e+00  2.2803171116383489e+00 -8.9473568941943549e-01 0.0000000000000000e+00  2.3162621158477972e+00 -1.0369622357579773e+00 0.0000000000000000e+00  2.3083812366355132e+00 -1.1724491181024821e+00 0.0000000000000000e+00  2.3435470900488573e+00 -1.3015451299699252e+00 0.0000000000000000e+00  2.4185000321540007e+00 -1.3517303404625849e+00 0.0000000000000000e+00  2.5994301939015663e+00 -1.4205651354830244e+00 0.0000000000000000e+00  2.8896381411281689e+00 -1.4980571960789906e+00 0.0000000000000000e+00  3.0078678223759572e+00 -1.4892170870368637e+00 0.0000000000000000e+00  3.1695393212430867e+00 -1.4250293719403246e+00 0.0000000000000000e+00  3.2450312255316236e+00 -1.3159077757171787e+00 0.0000000000000000e+00  3.2560311344835724e+00 -1.2063881601373836e+00 0.0000000000000000e+00  3.2024960631591686e+00 -1.0963600836237790e+00 0.0000000000000000e+00  3.0943416840620053e+00 -1.0297408968630652e+00 0.0000000000000000e+00  2.9631225368713681e+00 -1.0630625707648009e+00 0.0000000000000000e+00  2.8284494730002221e+00 -1.0884786103390220e+00 0.0000000000000000e+00  2.7160899387190458e+00 -1.0108653390830276e+00 0.0000000000000000e+00  2.7239065280700516e+00 -8.8241180691702314e-01 0.0000000000000000e+00  2.7687417970543273e+00 -8.1373365075806470e-01 0.0000000000000000e+00  2.8387750740804010e+00 -7.5748773796180258e-01 0.0000000000000000e+00  2.9242660205206819e+00 -7.2723243468950749e-01 0.0000000000000000e+00  3.0118879211470446e+00 -6.8142471840463614e-01 0.0000000000000000e+00  3.0605446404096410e+00 -6.1038706540996768e-01 0.0000000000000000e+00  3.1103509342841460e+00 -4.8800890757742443e-01 0.0000000000000000e+00  3.1399565581451871e+00 -3.4696249480922098e-01 0.0000000000000000e+00  3.1366953383749938e+00 -2.1775545635271779e-01 0.0000000000000000e+00  3.1229340156018197e+00 -7.6537383161031064e-02 0.0000000000000000e+00  3.1114193340818996e+00 3.0834693733995482e-02 0.0000000000000000e+00  3.0864971528582594e+00 1.2624809451473837e-01 0.0000000000000000e+00  3.0434449977492384e+00 2.2219166227957618e-01 0.0000000000000000e+00  2.9795417486386677e+00 2.9461330445899891e-01 0.0000000000000000e+00  2.8927075744812614e+00 3.5797383426028390e-01 0.0000000000000000e+00  2.8123123265673979e+00 3.8566583813856137e-01 0.0000000000000000e+00  2.7872589184636154e+00 3.8494575817433496e-01 0.0000000000000000e+00  2.7300058773357168e+00 4.1306483723771115e-01 0.0000000000000000e+00  2.6482624502718735e+00 4.4695075217410746e-01 0.0000000000000000e+00  2.4458846767738165e+00 5.0653893305501996e-01 0.0000000000000000e+00  2.2752524098787217e+00 5.5541984229819852e-01 0.0000000000000000e+00  2.1093875695794142e+00 5.8558639871827978e-01 0.0000000000000000e+00  2.0181258624785738e+00 6.0206766035259573e-01 0.0000000000000000e+00  1.9166166647455434e+00 6.3413534287537876e-01 0.0000000000000000e+00  1.7887973694212527e+00 6.6284948152800272e-01 0.0000000000000000e+00  1.6107043062595430e+00 6.7509439610015121e-01 0.0000000000000000e+00  1.5038406592186988e+00 6.5725760429239444e-01 0.0000000000000000e+00  1.4669879186906616e+00 6.4690993897734583e-01 0.0000000000000000e+00  1.4407594307360749e+00 6.4913743639473154e-01 0.0000000000000000e+00  1.7451939081350500e+00 6.3963055498236632e-01 0.0000000000000000e+00  1.3803476667856127e+00 -2.5739850968861333e-01 0.0000000000000000e+00  0.0000000000000000e+00 0.0000000000000000e+00 0.0000000000000000e+00  0.0000000000000000e+00 0.0000000000000000e+00 0.0000000000000000e+00  1.4336692755658698e+00 6.5271511679449801e-01 0.0000000000000000e+00  1.4271446035081141e+00 6.5551782480440512e-01 0.0000000000000000e+00  1.4168276037868015e+00 6.5906646307494643e-01 0.0000000000000000e+00  1.4014497578368261e+00 6.6350590962623268e-01 0.0000000000000000e+00  1.3543714709143595e+00 6.7218827122564984e-01 0.0000000000000000e+00  1.3201033477541602e+00 6.7630635019655594e-01 0.0000000000000000e+00  1.2712234304832108e+00 6.7869629229124884e-01 0.0000000000000000e+00  1.1293192764490940e+00 6.7130777461063662e-01 0.0000000000000000e+00  8.1298239398891037e-01 5.7465621444710246e-01 0.0000000000000000e+00  7.4215526058665604e-01 5.4611265478271054e-01 0.0000000000000000e+00  4.7964526066613267e-01 4.4817202322634764e-01 0.0000000000000000e+00  4.3750565467212493e-01 4.6291935722014577e-01 0.0000000000000000e+00  3.6882940554769605e-01 5.0989797227932587e-01 0.0000000000000000e+00  3.4566144879963706e-01 5.3150797557709517e-01 0.0000000000000000e+00  2.7847233830548562e-01 5.6236147941067427e-01 0.0000000000000000e+00  2.1872834499845314e-01 5.1323091958577283e-01 0.0000000000000000e+00  2.0659537450928431e-01 4.8805395933445328e-01 0.0000000000000000e+00  1.6947853049053349e-01 4.1444734375605652e-01 0.0000000000000000e+00  1.4410138182195756e-01 3.5978722137976060e-01 0.0000000000000000e+00  7.7920550053742141e-02 2.1856598455942894e-01 0.0000000000000000e+00  2.1383044738933085e-02 -1.7196095785871665e-01 0.0000000000000000e+00  2.2293773803989558e-01 -5.3898496811111918e-01 0.0000000000000000e+00  5.8927487088173958e-01 -6.8007830183213736e-01 0.0000000000000000e+00  6.8943076711509255e-01 -7.0792991712702014e-01 0.0000000000000000e+00  1.4505758063345866e+00 -8.6492553066785438e-01 0.0000000000000000e+00  1.6610146096040512e+00 -8.2575248701835779e-01 0.0000000000000000e+00  1.8802619306868902e+00 -6.9385618228392476e-01 0.0000000000000000e+00  2.2971736206915181e+00 -9.5521142095123723e-01 0.0000000000000000e+00  2.3277121735072717e+00 -1.2453552922278113e+00 0.0000000000000000e+00  2.4958770241740180e+00 -1.3802826487138828e+00 0.0000000000000000e+00  2.7185145901658991e+00 -1.4537704668071538e+00 0.0000000000000000e+00  2.8144386815818874e+00 -1.4793999657903707e+00 0.0000000000000000e+00  3.0781762334242133e+00 -1.4615354545982993e+00 0.0000000000000000e+00  3.0375170531456264e+00 -1.0441305427874474e+00 0.0000000000000000e+00  2.7198631455764821e+00 -9.5373327733416613e-01 0.0000000000000000e+00  2.9733143373732136e+00 -7.0087077768353334e-01 0.0000000000000000e+00  3.1274151623804483e+00 -4.0885659640542765e-01 0.0000000000000000e+00  3.1325599723473809e+00 -1.4019120015157951e-01 0.0000000000000000e+00  3.0698050486639130e+00 1.6966433235074363e-01 0.0000000000000000e+00  2.9316415702408234e+00 3.3396610893976791e-01 0.0000000000000000e+00  2.8458483219783544e+00 3.7849393353439409e-01 0.0000000000000000e+00  2.7638613514514043e+00 3.9255691593591902e-01 0.0000000000000000e+00  2.5681040394657297e+00 4.8755922790407596e-01 0.0000000000000000e+00  2.1938466117261748e+00 5.6854608475553192e-01 0.0000000000000000e+00  1.6930343243603247e+00 6.7177513989615290e-01 0.0000000000000000e+00  1.5423330900150753e+00 6.6610349266819602e-01 0.0000000000000000e+00  1.4796979965410970e+00 6.5048053894159830e-01 0.0000000000000000e+00  1.4589916719534881e+00 6.4668726545392852e-01 0.0000000000000000e+00  1.4513153570665858e+00 6.4750261901182138e-01 0.0000000000000000e+00  1.4452985854242397e+00 6.4831842467595424e-01 0.0000000000000000e+00  2.1182867255566764e+00 6.5763840227031800e-01 0.0000000000000000e+00  2.4969875412394860e+00 6.3539382221798846e-01 0.0000000000000000e+00  2.8389780356203329e+00 5.4394510160396525e-01 0.0000000000000000e+00  3.0861140436397068e+00 3.8169573082933445e-01 0.0000000000000000e+00  3.1449676834350666e+00 1.3965058747001594e-01 0.0000000000000000e+00  2.9791028641406485e+00 -9.7101545191859789e-02 0.0000000000000000e+00  2.6198183701564020e+00 -2.5398050676440465e-01 0.0000000000000000e+00  2.1891224025129770e+00 -2.9349851520765718e-01 0.0000000000000000e+00  1.7814274726585713e+00 -2.8024620858007043e-01 0.0000000000000000e+00  1.3065063777360291e+00 1.5277543037923058e-01 0.0000000000000000e+00  1.2763908698794166e+00 5.1476754901000721e-01 0.0000000000000000e+00  1.2642956772544252e+00 7.7016147163603965e-01 0.0000000000000000e+00  1.2492814729381343e+00 9.0507045400201724e-01 0.0000000000000000e+00  1.2070137484911112e+00 8.9461462925372770e-01 0.0000000000000000e+00  1.1051407092395253e+00 7.6456442517998824e-01 0.0000000000000000e+00  9.1824505325444306e-01 5.6781088441381089e-01 0.0000000000000000e+00  6.5953664458678363e-01 3.6931051690380778e-01 0.0000000000000000e+00  3.5976818887527001e-01 2.0413824035465003e-01 0.0000000000000000e+00  4.3349616959957238e-01 -2.4302549330810436e-01 0.0000000000000000e+00  7.8651353903311894e-01 -4.4930750442963296e-01 0.0000000000000000e+00  1.0576785226743466e+00 -6.9166379451338234e-01 0.0000000000000000e+00  1.1983766630497630e+00 -8.5121128834106086e-01 0.0000000000000000e+00  1.2766081625582937e+00 -8.0506559151317370e-01 0.0000000000000000e+00  1.3708970478443514e+00 -6.1119915520314749e-01 0.0000000000000000e+00  1.4808624392277667e+00 -3.4849324491323763e-01 0.0000000000000000e+00  1.5823200199289802e+00 -5.2480581936172263e-02 0.0000000000000000e+00  1.6637961861682089e+00 2.7812578658390835e-01 0.0000000000000000e+00  0.0000000000000000e+00 0.0000000000000000e+00 0.0000000000000000e+00  0.0000000000000000e+00 0.0000000000000000e+00 0.0000000000000000e+00  0.0000000000000000e+00 0.0000000000000000e+00 0.0000000000000000e+00  0.0000000000000000e+00 0.0000000000000000e+00 0.0000000000000000e+00  0.0000000000000000e+00 0.0000000000000000e+00 0.0000000000000000e+00  0.0000000000000000e+00 0.0000000000000000e+00 0.0000000000000000e+00  0.0000000000000000e+00 0.0000000000000000e+00 0.0000000000000000e+00  0.0000000000000000e+00 0.0000000000000000e+00 0.0000000000000000e+00  0.0000000000000000e+00 0.0000000000000000e+00 0.0000000000000000e+00  3.0826530355080526e+00 -5.5722586924040929e-01 0.0000000000000000e+00  2.4440938224550468e+00 -9.0930625718360965e-03 0.0000000000000000e+00  2.7333366064506998e-01 -8.8950047202853433e-02 0.0000000000000000e+00  2.4723923634367148e-01 7.0232784695755612e-02 0.0000000000000000e+00  1.6616160211980091e+00 6.5194299751322327e-01 0.0000000000000000e+00  1.3048413770727745e+00 8.3719776181513561e-01 0.0000000000000000e+00  3.0891765493223149e+00 2.0591529982766213e-01 0.0000000000000000e+00  1.4704700480422213e+00 -7.3924915881487208e-01 0.0000000000000000e+00  1.5189245427893504e-02 -1.3469046068175611e-02 0.0000000000000000e+00  7.2310724830098971e-01 4.4940244096271215e-01 0.0000000000000000e+00  1.0622946711510577e+00 -7.3386900747418071e-01 0.0000000000000000e+00  1.5391348871888863e-01 7.1386400924710935e-02 0.0000000000000000e+00  2.2973469309333636e-01 -1.0992889340181439e-01 0.0000000000000000e+00  1.9130159965045177e+00 4.2066224988740286e-01 0.0000000000000000e+00  1.5402875280343338e+00 -8.7529529122096011e-04 0.0000000000000000e+00  2.9025987046116764e-01 3.5724829238363348e-01 0.0000000000000000e+00  2.5139182320639399e+00 -8.6058167001587293e-01 0.0000000000000000e+00  2.5254400372034542e+00 -1.1341010798044651e+00 0.0000000000000000e+00  2.9580732251275630e+00 -1.2802275477740019e+00 0.0000000000000000e+00  2.9274704955443633e+00 -5.6731888279170606e-01 0.0000000000000000e+00  2.8197477351474809e-01 5.0464815488526671e-01 0.0000000000000000e+00  1.4320562687080933e+00 6.5216151767918273e-01 0.0000000000000000e+00  4.0740987962667598e-02 -2.2450994995179583e-02 0.0000000000000000e+00  2.1444359880411481e+00 1.2477319589163045e-01 0.0000000000000000e+00  1.7784241398003349e+00 -4.3258813934033818e-01 0.0000000000000000e+00  2.9161881422923663e+00 2.2742207937127143e-01 0.0000000000000000e+00  2.6732915303684517e+00 -1.4855608105419052e-01 0.0000000000000000e+00  2.2120449724154367e+00 1.9757843504030176e-01 0.0000000000000000e+00  3.8911977986601937e-01 1.7962537493342054e-01 0.0000000000000000e+00  6.3301703798914033e-01 -3.4167426745893992e-01 0.0000000000000000e+00  1.0945657774930009e+00 8.0100608037231336e-01 0.0000000000000000e+00  1.6361327178149550e+00 3.3787459189675939e-01 0.0000000000000000e+00  1.2458995005419919e-01 -8.2931962486303995e-02 0.0000000000000000e+00  1.4259349330035138e+00 8.2729729086111625e-01 0.0000000000000000e+00  1.6820603646662358e+00 7.4070008082710370e-01 0.0000000000000000e+00  3.2748068251647949e-01 1.5786928453423960e-01 0.0000000000000000e+00  5.0293351078261528e-01 -2.8551423353861199e-01 0.0000000000000000e+00  9.8127916816305477e-02 1.2325213168207861e-03 0.0000000000000000e+00  9.2546863246422251e-02 -2.1497419861200118e-03 0.0000000000000000e+00  1.2560450169312436e+00 -8.2349457230618073e-01 0.0000000000000000e+00  3.0759687692922593e+00 1.1125497924268303e-01 0.0000000000000000e+00  1.4262334626307795e+00 7.5485386158793233e-01 0.0000000000000000e+00  2.9140166881705429e+00 2.2557700855814086e-01 0.0000000000000000e+00  3.0465971423394804e+00 1.8566261571166773e-01 0.0000000000000000e+00  1.5358702983142882e+00 -7.3707344287671417e-01 0.0000000000000000e+00  6.9105537669351689e-03 1.0630362786712834e-03 0.0000000000000000e+00  7.3794677414795673e-01 4.8019178132357576e-01 0.0000000000000000e+00  1.1197388557029013e+00 -7.8814606987841207e-01 0.0000000000000000e+00  1.9876859018204593e-01 2.9814048989286623e-01 0.0000000000000000e+00  2.8855579335145154e+00 -6.3901121103581737e-01 0.0000000000000000e+00  3.0201685481122359e-01 4.4021447157213323e-01 0.0000000000000000e+00  2.6385501672459077e+00 -7.0907363846061133e-01 0.0000000000000000e+00  2.3525189424592088e+00 -7.0954329218639101e-01 0.0000000000000000e+00  2.7221882510377249e+00 -1.2997267845849778e+00 0.0000000000000000e+00  2.5347859586700476e+00 -9.8307383673659920e-01 0.0000000000000000e+00  3.0837607746574580e+00 -1.2189320615721646e+00 0.0000000000000000e+00  3.0126579358341097e+00 -5.3433025628981401e-01 0.0000000000000000e+00  2.4065471784864760e+00 -1.0881424659158343e+00 0.0000000000000000e+00  2.9704828929343190e+00 -6.3788009735041806e-01 0.0000000000000000e+00  2.4730084974399005e+00 -1.2732761930490950e+00 0.0000000000000000e+00  3.0128557432431444e+00 -1.3964731214053985e+00 0.0000000000000000e+00  2.9127754710999167e+00 -1.1582753443028866e+00 0.0000000000000000e+00  2.4696847968889996e-01 4.8677826714972039e-01 0.0000000000000000e+00  2.9907222643356168e-01 5.3366364413553391e-01 0.0000000000000000e+00  2.5842653699987767e-01 5.2719019189179672e-01 0.0000000000000000e+00  1.4108802339254893e+00 6.5834529873318881e-01 0.0000000000000000e+00  1.4403525280129810e+00 6.5031974753444011e-01 0.0000000000000000e+00  1.4329687128901736e+00 6.5170507838414804e-01 0.0000000000000000e+00  2.1308648235566188e+00 -3.5592610892663779e-01 0.0000000000000000e+00  2.6229554878354517e+00 2.7955170530163104e-01 0.0000000000000000e+00  6.8430714757763175e-02 1.3213084383150577e-02 0.0000000000000000e+00  2.8310913563396105e+00 6.7449059959979782e-02 0.0000000000000000e+00  2.5303322974251885e-01 -9.2845794467600218e-02 0.0000000000000000e+00  1.8173320045304602e+00 -1.3724791195386726e-01 0.0000000000000000e+00  3.1108037484706696e+00 2.2736519011896739e-01 0.0000000000000000e+00  2.8574812449271425e+00 9.2010634047501413e-02 0.0000000000000000e+00  6.2760042668846272e-01 3.5788965960352548e-01 0.0000000000000000e+00  7.3642957875605384e-03 -1.4963257647260616e-02 0.0000000000000000e+00  4.8863447616845856e-01 2.4325363244059026e-01 0.0000000000000000e+00  5.4495363792437940e-02 -2.2125095901100122e-02 0.0000000000000000e+00  1.9495586275382843e+00 1.1205209691790781e-01 0.0000000000000000e+00  1.5294116632863701e+00 -6.1439869836567074e-01 0.0000000000000000e+00  1.5801161885481801e-01 4.6092257459710531e-02 0.0000000000000000e+00  1.1269810310410777e+00 7.6146811756807997e-01 0.0000000000000000e+00  2.1680913748155768e+00 3.8185083996700442e-01 0.0000000000000000e+00  1.2006672341143465e+00 8.7806795708751795e-01 0.0000000000000000e+00  8.5097518043994747e-01 -5.1833976614978428e-01 0.0000000000000000e+00  2.0510215306544621e+00 4.4477217773822431e-01 0.0000000000000000e+00  1.4213559011191479e+00 6.5838362272961826e-01 0.0000000000000000e+00  9.4035530248028709e-01 6.4692642019232172e-01 0.0000000000000000e+00  -6.9874880488037796e-03 -2.4531867064534928e-02 0.0000000000000000e+00  1.8803038296847336e+00 1.6003086239038861e-01 0.0000000000000000e+00  2.6770617424878096e+00 -3.9938695783160783e-01 0.0000000000000000e+00  1.0720240604060048e-01 6.1256279883893636e-02 0.0000000000000000e+00  9.1525237793086944e-01 -5.9652642885229168e-01 0.0000000000000000e+00  1.2521134255559925e+00 -8.1281271437992486e-01 0.0000000000000000e+00  2.9028653242827911e+00 -1.2045040713058845e-01 0.0000000000000000e+00  2.9747124838458805e-01 1.4497557804854824e-01 0.0000000000000000e+00  2.0456469303107572e-01 -2.6327222392891214e-01 0.0000000000000000e+00  3.0301070002029147e+00 2.5890118490929909e-01 0.0000000000000000e+00  1.4937033559232173e+00 7.9745851542092461e-01 0.0000000000000000e+00  4.6954323974004446e-02 -1.0742716471663180e-01 0.0000000000000000e+00  2.5547596924140875e-01 -1.2114680407509180e-01 0.0000000000000000e+00  1.5590483135498101e+00 7.6268769042573881e-01 0.0000000000000000e+00  1.6359067453698544e+00 7.3746909786226256e-01 0.0000000000000000e+00  1.8490835471932416e+00 6.8517999935138973e-01 0.0000000000000000e+00  1.2542276576460347e+00 -8.3237623007911066e-01 0.0000000000000000e+00  2.5662281780505629e+00 2.5818329528089590e-01 0.0000000000000000e+00  1.1368750288414928e+00 -7.9684239293084524e-01 0.0000000000000000e+00  3.7735872313333024e-01 2.7225552514520251e-01 0.0000000000000000e+00  5.0684011057134037e-01 -4.1902278816207933e-01 0.0000000000000000e+00  1.4562331186575468e+00 6.9965899341212834e-01 0.0000000000000000e+00  1.6395416148653823e+00 -7.2440722349692255e-01 0.0000000000000000e+00  8.4940021726996806e-01 6.0924944256251701e-01 0.0000000000000000e+00  3.0183420345561847e+00 -4.0373407396474670e-01 0.0000000000000000e+00  2.3395659928859738e-01 3