<?xml version="1.0"?>
<VTKFile type="UnstructuredGrid"  version="0.1"  >
<UnstructuredGrid>
<Piece  NumberOfPoints="2868" NumberOfCells="5400">
<Points>
<DataArray  type="Float64"  NumberOfComponents="3"  format="ascii">0.534923 0.326073 0  0.510642 0.314196 0  0.466125 0.293082 0  0.436448 0.281205 0  0.409468 0.275927 0  0.368998 0.270648 0  0.35281 0.275927 0  0.381139 0.302319 0  0.405421 0.326073 0  0.410817 0.33531 0  0.408119 0.349826 0  0.400025 0.357744 0  0.375743 0.368301 0  0.329878 0.392055 0  0.297502 0.432963 0  0.282663 0.476511 0  0.285361 0.524018 0  0.298851 0.572845 0  0.317737 0.6045160000000001 0  0.337972 0.6361869999999999 0  0.360904 0.674457 0  0.368998 0.69953 0  0.359555 0.7219640000000001 0  0.360904 0.757594 0  0.370347 0.766831 0  0.381139 0.762872 0  0.390582 0.741758 0  0.404072 0.720644 0  0.424307 0.707448 0  0.447239 0.702169 0  0.480964 0.704808 0  0.479615 0.6889729999999999 0  0.468823 0.675776 0  0.447239 0.6691780000000001 0  0.428354 0.6691780000000001 0  0.410817 0.6639 0  0.404072 0.653343 0  0.395978 0.628269 0  0.387884 0.59132 0  0.389233 0.576804 0  0.397327 0.557009 0  0.410817 0.547772 0  0.424307 0.546452 0  0.437797 0.55305 0  0.44589 0.5662469999999999 0  0.441843 0.582082 0  0.439145 0.5979179999999999 0  0.449937 0.609795 0  0.468823 0.603196 0  0.479615 0.59 0  0.489058 0.570205 0  0.494454 0.546452 0  0.505246 0.522699 0  0.522783 0.509502 0  0.55246 0.494986 0  0.586185 0.484429 0  0.615863 0.48047 0  0.64554 0.473872 0  0.6671240000000001 0.461995 0  0.683312 0.451438 0  0.696802 0.435603 0  0.703547 0.417128 0  0.7116400000000001 0.393374 0  0.7183850000000001 0.37226 0  0.7251300000000001 0.364342 0  0.739969 0.353785 0  0.7453650000000001 0.344548 0  0.7453650000000001 0.327393 0  0.737271 0.318155 0  0.7183850000000001 0.316835 0  0.7008490000000001 0.319475 0  0.677916 0.318155 0  0.650936 0.316835 0  0.610467 0.318155 0  0.57944 0.324753 0  0.559205 0.328712 0  0.5389699999999999 0.326073 0  1 1 0  1 0 0  0 0 0  0 1 0  0.532238 0.32476 0  0.528748 0.323052 0  0.52421 0.320833 0  0.518311 0.317947 0  0.503447 0.310783 0  0.494093 0.306347 0  0.481933 0.30058 0  0.452151 0.28749 0  0.392327 0.273691 0  0.379141 0.271971 0  0.360474 0.283066 0  0.369797 0.291752 0  0.391424 0.31238 0  0.399335 0.32012 0  0.40958 0.341964 0  0.393939 0.36039 0  0.386028 0.36383 0  0.364248 0.374254 0  0.349304 0.381994 0  0.315801 0.409841 0  0.292986 0.551616 0  0.350934 0.657818 0  0.360127 0.737055 0  0.360566 0.748664 0  0.385245 0.753692 0  0.396447 0.732578 0  0.466301 0.703661 0  0.459439 0.672908 0  0.418442 0.666195 0  0.400553 0.642441 0  0.39255 0.612619 0  0.389913 0.60058 0  0.392752 0.568197 0  0.444131 0.573132 0  0.458149 0.606926 0  0.5005540000000001 0.533026 0  0.571522 0.489019 0  0.632637 0.476741 0  0.689177 0.444553 0  0.708121 0.403702 0  0.715453 0.38144 0  0.732406 0.359166 0  0.7453650000000001 0.337089 0  0.72906 0.317581 0  0.629879 0.317522 0  0.59293 0.321884 0  0.568003 0.326991 0  0.55202 0.327775 0  0.546493 0.327054 0  0.542241 0.326499 0  1 0.9 0  1 0.8 0  1 0.7 0  1 0.6 0  1 0.5 0  1 0.4 0  1 0.3 0  1 0.2 0  1 0.1 0  0.9 0 0  0.8 0 0  0.7 0 0  0.6 0 0  0.5 0 0  0.4 0 0  0.3 0 0  0.2 0 0  0.1 0 0  0.1 1 0  0.2 1 0  0.3 1 0  0.4 1 0  0.5 1 0  0.6 1 0  0.7 1 0  0.8 1 0  0.9 1 0  0 0.1 0  0 0.2 0  0 0.3 0  0 0.4 0  0 0.5 0  0 0.6 0  0 0.7 0  0 0.8 0  0 0.9 0  0.535686 0.5031910000000001 0  0.753987 0.733359 0  0.167145 0.741436 0  0.173378 0.257204 0  0.733497 0.159862 0  0.554096 0.15788 0  0.849187 0.479053 0  0.488793 0.838452 0  0.138507 0.5592 0  0.30686 0.154944 0  0.348904 0.890523 0  0.058006 0.065099 0  0.06984899999999999 0.937917 0  0.93633 0.939704 0  0.934625 0.053613 0  0.343397 0.333452 0  0.473272 0.639943 0  0.433266 0.638072 0  0.415174 0.58269 0  0.533435 0.545042 0  0.390848 0.340652 0  0.53655 0.320242 0  0.127966 0.393775 0  0.83861 0.850455 0  0.635242 0.8551299999999999 0  0.852158 0.633441 0  0.653427 0.626848 0  0.861226 0.24292 0  0.166128 0.12976 0  0.216875 0.8698709999999999 0  0.458305 0.11179 0  0.84446 0.101633 0  0.202024 0.642528 0  0.644825 0.115855 0  0.671342 0.218358 0  0.251354 0.286186 0  0.262388 0.75153 0  0.063044 0.751571 0  0.068189 0.242962 0  0.435781 0.9053949999999999 0  0.934144 0.451133 0  0.568393 0.237622 0  0.814984 0.395506 0  0.752951 0.517227 0  0.456254 0.780699 0  0.073352 0.531116 0  0.337731 0.206071 0  0.363213 0.960371 0  0.330742 0.363592 0  0.516613 0.55705 0  0.369057 0.332992 0  0.500926 0.617309 0  0.498004 0.665534 0  0.412142 0.61178 0  0.454233 0.6366039999999999 0  0.422782 0.567496 0  0.541193 0.5214800000000001 0  0.439761 0.65557 0  0.5163 0.533672 0  0.414775 0.64562 0  0.40073 0.576135 0  0.430362 0.5880339999999999 0  0.385432 0.351492 0  0.400298 0.335397 0  0.398325 0.348194 0  0.528702 0.314885 0  0.540814 0.322334 0  0.534477 0.322953 0  0.619095 0.743583 0  0.885162 0.737972 0  0.08076 0.668849 0  0.90734 0.36634 0  0.09468699999999999 0.868937 0  0.759838 0.912152 0  0.901518 0.540898 0  0.747285 0.607479 0  0.229182 0.071641 0  0.06915399999999999 0.450091 0  0.244775 0.203309 0  0.076534 0.331755 0  0.897847 0.167826 0  0.578909 0.911415 0  0.07713299999999999 0.146341 0  0.477215 0.203448 0  0.922631 0.869341 0  0.517415 0.074785 0  0.297026 0.827793 0  0.7832710000000001 0.246505 0  0.74519 0.061079 0  0.36033 0.069068 0  0.210313 0.475228 0  0.859426 0.928758 0  0.5745479999999999 0.609182 0  0.243069 0.383398 0  0.283099 0.934598 0  0.417416 0.843141 0  0.643942 0.553164 0  0.112687 0.079336 0  0.281357 0.658386 0  0.765043 0.436177 0  0.611361 0.198486 0  0.234496 0.58911 0  0.206479 0.702638 0  0.679608 0.155818 0  0.62682 0.259978 0  0.690538 0.264164 0  0.448938 0.956308 0  0.808154 0.328403 0  0.379583 0.91913 0  0.308083 0.297769 0  0.312358 0.730249 0  0.563101 0.278576 0  0.435597 0.746198 0  0.385475 0.225229 0  0.572248 0.518034 0  0.357864 0.35422 0  0.497647 0.641694 0  0.458101 0.655768 0  0.360474 0.310727 0  0.467038 0.620139 0  0.47798 0.659909 0  0.41102 0.628072 0  0.48324 0.609015 0  0.427544 0.617941 0  0.388633 0.328253 0  0.405336 0.599404 0  0.408351 0.565178 0  0.42395 0.600985 0  0.431562 0.576523 0  0.424905 0.6551979999999999 0  0.398064 0.58782 0  0.427739 0.557934 0  0.5192909999999999 0.303443 0  0.53142 0.320293 0  0.5449000000000001 0.323642 0  0.537166 0.323513 0  0.153974 0.920841 0  0.9181859999999999 0.67343 0  0.759946 0.820588 0  0.5375259999999999 0.783091 0  0.816532 0.545843 0  0.813991 0.178083 0  0.836774 0.702023 0  0.149815 0.318856 0  0.662287 0.923338 0  0.680146 0.791192 0  0.708961 0.663172 0  0.9372779999999999 0.287318 0  0.574622 0.6881660000000001 0  0.5894740000000001 0.076262 0  0.502822 0.926683 0  0.222269 0.811068 0  0.380457 0.164786 0  0.15321 0.684154 0  0.458063 0.051413 0  0.161702 0.056026 0  0.199351 0.198818 0  0.298946 0.09553200000000001 0  0.902465 0.795949 0  0.121139 0.791477 0  0.906269 0.112287 0  0.056109 0.822332 0  0.512172 0.13237 0  0.940964 0.741805 0  0.888887 0.408777 0  0.354543 0.825964 0  0.808736 0.068638 0  0.068507 0.394071 0  0.719105 0.563843 0  0.247287 0.149664 0  0.293062 0.237128 0  0.240524 0.434997 0  0.141255 0.623289 0  0.945202 0.160621 0  0.502914 0.247629 0  0.144669 0.480811 0  0.665025 0.060817 0  0.728047 0.224344 0  0.861995 0.313312 0  0.200068 0.534235 0  0.253262 0.965623 0  0.893804 0.49307 0  0.604391 0.572456 0  0.947088 0.345347 0  0.439372 0.227307 0  0.629847 0.159823 0  0.273405 0.880181 0  0.302744 0.776823 0  0.781502 0.295365 0  0.275342 0.349602 0  0.7283849999999999 0.472798 0  0.229136 0.246478 0  0.807794 0.480346 0  0.709476 0.112786 0  0.275506 0.694991 0  0.771674 0.394419 0  0.449715 0.861802 0  0.419159 0.799696 0  0.674851 0.503139 0  0.280443 0.61016 0  0.572443 0.192538 0  0.393113 0.87525 0  0.405555 0.948428 0  0.330942 0.934103 0  0.540509 0.597101 0  0.312763 0.6689310000000001 0  0.254368 0.540179 0  0.595265 0.25915 0  0.606679 0.234099 0  0.657131 0.279138 0  0.722458 0.279478 0  0.333 0.308056 0  0.351529 0.246142 0  0.455714 0.7257940000000001 0  0.585239 0.295143 0  0.340062 0.72492 0  0.545593 0.293773 0  0.555449 0.545426 0  0.414311 0.737314 0  0.590854 0.502323 0  0.350507 0.368444 0  0.484423 0.625665 0  0.483899 0.674542 0  0.378137 0.317274 0  0.446416 0.646404 0  0.373532 0.347654 0  0.446876 0.619769 0  0.466106 0.666068 0  0.437545 0.609254 0  0.434988 0.565726 0  0.41462 0.656829 0  0.418803 0.556961 0  0.398425 0.327446 0  0.517803 0.310421 0  0.549516 0.322918 0  0.57701 0.842889 0  0.8291269999999999 0.773906 0  0.643235 0.684732 0  0.134281 0.207734 0  0.865997 0.055966 0  0.680959 0.723345 0  0.165229 0.8415550000000001 0  0.54558 0.959672 0  0.783726 0.656439 0  0.913315 0.595533 0  0.699439 0.860667 0  0.785839 0.125076 0  0.551673 0.037713 0  0.9200970000000001 0.223214 0  0.206406 0.299726 0  0.087064 0.596401 0  0.935644 0.394252 0  0.964557 0.252582 0  0.230124 0.928346 0  0.120579 0.271764 0  0.8572149999999999 0.524082 0  0.7670979999999999 0.5551469999999999 0  0.936094 0.507131 0  0.804064 0.59585 0  0.700565 0.608273 0  0.429773 0.174231 0  0.117746 0.727333 0  0.5389620000000001 0.730231 0  0.862761 0.359173 0  0.821444 0.284046 0  0.193552 0.35818 0  0.234923 0.505555 0  0.193209 0.421217 0  0.220144 0.755896 0  0.594015 0.131642 0  0.283813 0.195855 0  0.517519 0.213961 0  0.553509 0.639116 0  0.280391 0.378018 0  0.852183 0.436817 0  0.746983 0.197173 0  0.821806 0.221318 0  0.449853 0.828453 0  0.883758 0.453926 0  0.183484 0.589542 0  0.348384 0.129314 0  0.255254 0.838525 0  0.504849 0.798516 0  0.320344 0.863432 0  0.611669 0.525425 0  0.265864 0.804962 0  0.72056 0.521442 0  0.613372 0.6101220000000001 0  0.481262 0.881068 0  0.655778 0.191988 0  0.701921 0.196918 0  0.5658260000000001 0.5731810000000001 0  0.46914 0.240927 0  0.343219 0.173284 0  0.888786 0.278502 0  0.244113 0.6750930000000001 0  0.739546 0.417914 0  0.784023 0.355942 0  0.326805 0.265549 0  0.248616 0.6
[...]
<PointData  Vectors="f_21"> 
<DataArray  type="Float64"  Name="f_21"  NumberOfComponents="3" format="ascii">1.4153376451070832e+00 7.3234016795844403e-01 0.0000000000000000e+00  1.3512739418109250e+00 7.5395966905496892e-01 0.0000000000000000e+00  1.1594817715102428e+00 7.6318781129497981e-01 0.0000000000000000e+00  1.0003048436085358e+00 7.3651415612163773e-01 0.0000000000000000e+00  8.5366943706035714e-01 6.8536649690995444e-01 0.0000000000000000e+00  6.2649890866064417e-01 5.8300522812143607e-01 0.0000000000000000e+00  4.9761264754897555e-01 4.9834339133201333e-01 0.0000000000000000e+00  3.5815288107434068e-01 5.8329119609820146e-01 0.0000000000000000e+00  2.6929215984063748e-01 6.7418594119896547e-01 0.0000000000000000e+00  2.3350693848596862e-01 6.9549671019644466e-01 0.0000000000000000e+00  1.7676038143520029e-01 6.8510463240479880e-01 0.0000000000000000e+00  1.4535180032669148e-01 6.5295319571682009e-01 0.0000000000000000e+00  1.0503753373261332e-01 5.5056739655662668e-01 0.0000000000000000e+00  4.6063204306866605e-02 3.3205655671404927e-01 0.0000000000000000e+00  -1.6485283278144737e-03 1.5812699550927131e-01 0.0000000000000000e+00  -2.0044777085463462e-02 2.5651696605913207e-02 0.0000000000000000e+00  -1.0439943639368773e-02 -1.0055742733650298e-01 0.0000000000000000e+00  2.5207987231777727e-02 -2.3973011200339900e-01 0.0000000000000000e+00  7.6457454637753108e-02 -3.6289035391140262e-01 0.0000000000000000e+00  1.5537890829488518e-01 -4.8893310692132069e-01 0.0000000000000000e+00  2.8972294440317076e-01 -6.3306927736584173e-01 0.0000000000000000e+00  3.9506047335644973e-01 -6.8728690983888130e-01 0.0000000000000000e+00  4.9421055369352168e-01 -6.7537461683671818e-01 0.0000000000000000e+00  7.9059833347234643e-01 -7.5118482861619651e-01 0.0000000000000000e+00  1.0351606963918176e+00 -8.3994535051817310e-01 0.0000000000000000e+00  1.2347873337743409e+00 -8.7066945422628284e-01 0.0000000000000000e+00  1.5388227837922166e+00 -8.7140580568633075e-01 0.0000000000000000e+00  1.6895530296036423e+00 -8.1209809054244986e-01 0.0000000000000000e+00  1.7549747342252180e+00 -7.4498260744546640e-01 0.0000000000000000e+00  1.7890230559082736e+00 -7.0015102706548293e-01 0.0000000000000000e+00  1.9100784834026205e+00 -7.3606184959416843e-01 0.0000000000000000e+00  2.0957371421148667e+00 -8.0280929623293629e-01 0.0000000000000000e+00  2.1893321267577770e+00 -8.9105089920190261e-01 0.0000000000000000e+00  2.2172301596222503e+00 -1.0525763558677024e+00 0.0000000000000000e+00  2.2051504668604114e+00 -1.2051103203403415e+00 0.0000000000000000e+00  2.2434687705401677e+00 -1.3486014049867971e+00 0.0000000000000000e+00  2.3258988689281281e+00 -1.4040085068751413e+00 0.0000000000000000e+00  2.5243166849534622e+00 -1.4803374060726353e+00 0.0000000000000000e+00  2.8422839869929923e+00 -1.5660273609705255e+00 0.0000000000000000e+00  2.9717099483884439e+00 -1.5564370426706315e+00 0.0000000000000000e+00  3.1488133846142556e+00 -1.4861789582460410e+00 0.0000000000000000e+00  3.2315909557349243e+00 -1.3665173571693892e+00 0.0000000000000000e+00  3.2436749683534232e+00 -1.2462788093819244e+00 0.0000000000000000e+00  3.1848624956813167e+00 -1.1253669267563871e+00 0.0000000000000000e+00  3.0660887865392410e+00 -1.0521747572970432e+00 0.0000000000000000e+00  2.9223838286714239e+00 -1.0883755877273920e+00 0.0000000000000000e+00  2.7754889181746272e+00 -1.1144773294999060e+00 0.0000000000000000e+00  2.6517383680884246e+00 -1.0256419482120649e+00 0.0000000000000000e+00  2.6580356351629533e+00 -8.8318807540608890e-01 0.0000000000000000e+00  2.7046234979879822e+00 -8.0920255097868521e-01 0.0000000000000000e+00  2.7792363609487203e+00 -7.4931741603377722e-01 0.0000000000000000e+00  2.8709295037247595e+00 -7.1732677839639025e-01 0.0000000000000000e+00  2.9640474200684115e+00 -6.6848083317805185e-01 0.0000000000000000e+00  3.0151149200028158e+00 -5.9282848488597106e-01 0.0000000000000000e+00  3.0654732031392351e+00 -4.6245244798245116e-01 0.0000000000000000e+00  3.0916798666747183e+00 -3.1439229143947334e-01 0.0000000000000000e+00  3.0832368705981108e+00 -1.8256713771923042e-01 0.0000000000000000e+00  3.0653869121647097e+00 -4.2371933361487882e-02 0.0000000000000000e+00  3.0533107626549882e+00 6.2531419515241313e-02 0.0000000000000000e+00  3.0303114874319230e+00 1.5566459622267112e-01 0.0000000000000000e+00  2.9911957679990131e+00 2.4989920786452136e-01 0.0000000000000000e+00  2.9320572845778292e+00 3.2148812647459463e-01 0.0000000000000000e+00  2.8505972108783886e+00 3.8547830059438526e-01 0.0000000000000000e+00  2.7741250583413768e+00 4.1457409705947462e-01 0.0000000000000000e+00  2.7502577789849805e+00 4.1522586539392015e-01 0.0000000000000000e+00  2.6936965478616832e+00 4.4643361273215887e-01 0.0000000000000000e+00  2.6117090947513866e+00 4.8133553890026715e-01 0.0000000000000000e+00  2.4088934796739214e+00 5.4066383606746204e-01 0.0000000000000000e+00  2.2391421858587632e+00 5.8829415501946969e-01 0.0000000000000000e+00  2.0762063646158535e+00 6.1796364486498967e-01 0.0000000000000000e+00  1.9880672236584904e+00 6.3620228540227597e-01 0.0000000000000000e+00  1.8897073768395305e+00 6.7248759607697917e-01 0.0000000000000000e+00  1.7652531299842484e+00 7.0890917636236406e-01 0.0000000000000000e+00  1.5901183721979653e+00 7.3574507953026214e-01 0.0000000000000000e+00  1.4844226029882786e+00 7.2836729072688056e-01 0.0000000000000000e+00  1.4474474974793259e+00 7.2344361207786756e-01 0.0000000000000000e+00  1.4191882336002715e+00 7.3014895798825108e-01 0.0000000000000000e+00  1.8547126864900767e+00 5.6203666931090601e-01 0.0000000000000000e+00  1.4086924553808331e+00 -1.4701921498662915e-01 0.0000000000000000e+00  0.0000000000000000e+00 0.0000000000000000e+00 0.0000000000000000e+00  0.0000000000000000e+00 0.0000000000000000e+00 0.0000000000000000e+00  1.4114255896091752e+00 7.3501852863096317e-01 0.0000000000000000e+00  1.4042264264916884e+00 7.3846340608041128e-01 0.0000000000000000e+00  1.3929545506641245e+00 7.4278610069088191e-01 0.0000000000000000e+00  1.3762540919158763e+00 7.4807165237358653e-01 0.0000000000000000e+00  1.3256408589282773e+00 7.5812457787455356e-01 0.0000000000000000e+00  1.2891084205709327e+00 7.6268090839060609e-01 0.0000000000000000e+00  1.2372674547074429e+00 7.6482654350627888e-01 0.0000000000000000e+00  1.0886619314935664e+00 7.5431363411079722e-01 0.0000000000000000e+00  7.6539112479437987e-01 6.4371137091212216e-01 0.0000000000000000e+00  6.9502259197175598e-01 6.1174207117118518e-01 0.0000000000000000e+00  4.4267423020730634e-01 5.2086059038954469e-01 0.0000000000000000e+00  3.9981442888750468e-01 5.4684732373497946e-01 0.0000000000000000e+00  3.2089547647314265e-01 6.1997201940539326e-01 0.0000000000000000e+00  2.9197843673776391e-01 6.5031185118314205e-01 0.0000000000000000e+00  2.0759046134562179e-01 6.9076062681643335e-01 0.0000000000000000e+00  1.3484326430332930e-01 6.2819034977308585e-01 0.0000000000000000e+00  1.2144626360936349e-01 5.9516175814535111e-01 0.0000000000000000e+00  8.4999228968460724e-02 4.9849749874271165e-01 0.0000000000000000e+00  6.3751742142341680e-02 4.2842878132107431e-01 0.0000000000000000e+00  2.0754813736197048e-02 2.5543255390406960e-01 0.0000000000000000e+00  6.7512032688866750e-03 -1.7642166798388914e-01 0.0000000000000000e+00  2.2566078874649498e-01 -5.7153771631374983e-01 0.0000000000000000e+00  5.8604946696794369e-01 -7.1098559395909255e-01 0.0000000000000000e+00  6.8138222287582961e-01 -7.3876356088891260e-01 0.0000000000000000e+00  1.4095877774235916e+00 -8.8716711341418286e-01 0.0000000000000000e+00  1.6144439869104985e+00 -8.4477620336148840e-01 0.0000000000000000e+00  1.8272093502109883e+00 -6.9419870038195375e-01 0.0000000000000000e+00  2.2012691055953018e+00 -9.6033566282620642e-01 0.0000000000000000e+00  2.2260817537872182e+00 -1.2863315951742151e+00 0.0000000000000000e+00  2.4107919111567742e+00 -1.4356603358164806e+00 0.0000000000000000e+00  2.6548840307297419e+00 -1.5172292418273450e+00 0.0000000000000000e+00  2.7599658280440327e+00 -1.5455136688613647e+00 0.0000000000000000e+00  3.0486997407002696e+00 -1.5261519968380279e+00 0.0000000000000000e+00  3.0037908812009642e+00 -1.0679083572705503e+00 0.0000000000000000e+00  2.6551632543370101e+00 -9.6165310898174428e-01 0.0000000000000000e+00  2.9231376328473937e+00 -6.8921660638491067e-01 0.0000000000000000e+00  3.0809785817886173e+00 -3.7877234497309853e-01 0.0000000000000000e+00  3.0764595451321455e+00 -1.0520989674158887e-01 0.0000000000000000e+00  3.0152444338008682e+00 1.9814477377415798e-01 0.0000000000000000e+00  2.8873009810165895e+00 3.6101281432757615e-01 0.0000000000000000e+00  2.8060781655008880e+00 4.0674491186727441e-01 0.0000000000000000e+00  2.7273459034337368e+00 4.2434379009587597e-01 0.0000000000000000e+00  2.5312767840073946e+00 5.2211203018223840e-01 0.0000000000000000e+00  2.1588524521467520e+00 6.0090695152340856e-01 0.0000000000000000e+00  1.6715696897402372e+00 7.2529882288993253e-01 0.0000000000000000e+00  1.5226940775000732e+00 7.3294312131390082e-01 0.0000000000000000e+00  1.4602224375415658e+00 7.2481123812955206e-01 0.0000000000000000e+00  1.4388104645522177e+00 7.2494847834615839e-01 0.0000000000000000e+00  1.4305570497245395e+00 7.2699488645085297e-01 0.0000000000000000e+00  1.4240785445943340e+00 7.2869025248709907e-01 0.0000000000000000e+00  2.1705322907713951e+00 5.8997445198158061e-01 0.0000000000000000e+00  2.4930616520327109e+00 5.8691777766520115e-01 0.0000000000000000e+00  2.7823741806282434e+00 5.2664511337597064e-01 0.0000000000000000e+00  3.0094194738716231e+00 4.0877726756647798e-01 0.0000000000000000e+00  3.1011455023012569e+00 1.9865692705594570e-01 0.0000000000000000e+00  2.9493731045751823e+00 -3.5035261158079700e-02 0.0000000000000000e+00  2.5757558645078715e+00 -1.8485071435967912e-01 0.0000000000000000e+00  2.1513164610228754e+00 -2.0873525784514346e-01 0.0000000000000000e+00  1.7680100947759561e+00 -1.7916054321048366e-01 0.0000000000000000e+00  1.3187944527858411e+00 2.1520212575537925e-01 0.0000000000000000e+00  1.2484904961386070e+00 5.6415852454778437e-01 0.0000000000000000e+00  1.2105555736098845e+00 8.3662048795265331e-01 0.0000000000000000e+00  1.1793445239074476e+00 9.7486864201411061e-01 0.0000000000000000e+00  1.1320546680521291e+00 9.7314979823797043e-01 0.0000000000000000e+00  1.0550028521109189e+00 8.3620610674261642e-01 0.0000000000000000e+00  8.9603220305200448e-01 5.8851108349399450e-01 0.0000000000000000e+00  6.4243952706705776e-01 3.4634516409379990e-01 0.0000000000000000e+00  3.4095101166505748e-01 1.7970100322469393e-01 0.0000000000000000e+00  4.3216691673631369e-01 -2.4738146386167836e-01 0.0000000000000000e+00  7.8251600379914177e-01 -4.7131690775441776e-01 0.0000000000000000e+00  1.0418326829194260e+00 -7.4109535981503183e-01 0.0000000000000000e+00  1.1570350158172800e+00 -9.1507609787629451e-01 0.0000000000000000e+00  1.2147672288825622e+00 -8.4880741887905176e-01 0.0000000000000000e+00  1.3221525919334078e+00 -6.1895797288522070e-01 0.0000000000000000e+00  1.4721986566931937e+00 -3.3800339514577193e-01 0.0000000000000000e+00  1.6223187796798624e+00 -4.8243129202706833e-02 0.0000000000000000e+00  1.7518165874926739e+00 2.5315803604640819e-01 0.0000000000000000e+00  0.0000000000000000e+00 0.0000000000000000e+00 0.0000000000000000e+00  0.0000000000000000e+00 0.0000000000000000e+00 0.0000000000000000e+00  0.0000000000000000e+00 0.0000000000000000e+00 0.0000000000000000e+00  0.0000000000000000e+00 0.0000000000000000e+00 0.0000000000000000e+00  0.0000000000000000e+00 0.0000000000000000e+00 0.0000000000000000e+00  0.0000000000000000e+00 0.0000000000000000e+00 0.0000000000000000e+00  0.0000000000000000e+00 0.0000000000000000e+00 0.0000000000000000e+00  0.0000000000000000e+00 0.0000000000000000e+00 0.0000000000000000e+00  0.0000000000000000e+00 0.0000000000000000e+00 0.0000000000000000e+00  3.0377029702227376e+00 -5.3611455767629068e-01 0.0000000000000000e+00  2.3931298793768216e+00 2.2855010819554527e-02 0.0000000000000000e+00  2.6893483052076772e-01 -1.0189423298885729e-01 0.0000000000000000e+00  2.2189332809625803e-01 7.0528295671027211e-02 0.0000000000000000e+00  1.6169558876623531e+00 6.9304796702311877e-01 0.0000000000000000e+00  1.2418934059285776e+00 9.0881623173787307e-01 0.0000000000000000e+00  3.0340028003442248e+00 2.4697805137864884e-01 0.0000000000000000e+00  1.4358248552878758e+00 -7.5623877469348122e-01 0.0000000000000000e+00  -1.3399952373876701e-03 -1.1343973631104402e-02 0.0000000000000000e+00  6.7062576193035017e-01 4.8415647924798744e-01 0.0000000000000000e+00  1.0273772958489358e+00 -7.8659211950011754e-01 0.0000000000000000e+00  1.4594469537318744e-01 5.9227935348739630e-02 0.0000000000000000e+00  2.2614241716722153e-01 -1.1241550070868440e-01 0.0000000000000000e+00  1.9806704079593096e+00 3.8388289863815694e-01 0.0000000000000000e+00  1.5398022977347201e+00 7.3988135036069866e-02 0.0000000000000000e+00  2.3127890618617036e-01 4.2047936222261839e-01 0.0000000000000000e+00  2.4322118965430786e+00 -8.5769343112885454e-01 0.0000000000000000e+00  2.4437281608407964e+00 -1.1621286419416892e+00 0.0000000000000000e+00  2.9172033981881467e+00 -1.3268351302907477e+00 0.0000000000000000e+00  2.8728890100512032e+00 -5.4587430603250664e-01 0.0000000000000000e+00  2.1288373960436477e-01 6.1602369175911320e-01 0.0000000000000000e+00  1.4089669141459646e+00 7.3373378028325276e-01 0.0000000000000000e+00  2.6173794452425736e-02 -1.6841902043603630e-02 0.0000000000000000e+00  2.1527990831211539e+00 1.3613786084985480e-01 0.0000000000000000e+00  1.7607151770174749e+00 -4.0969014378518165e-01 0.0000000000000000e+00  2.8322018476888564e+00 2.4881309410380076e-01 0.0000000000000000e+00  2.5895422273855533e+00 -1.0157589950752262e-01 0.0000000000000000e+00  2.1706008976637250e+00 2.4716446888014024e-01 0.0000000000000000e+00  3.5960200345882881e-01 1.6442854251522110e-01 0.0000000000000000e+00  6.1690986324479702e-01 -3.6991379209604369e-01 0.0000000000000000e+00  1.0279613668174878e+00 8.8287259098270909e-01 0.0000000000000000e+00  1.6118688563933981e+00 3.8191830692645801e-01 0.0000000000000000e+00  1.1457354388448915e-01 -9.0326401157572525e-02 0.0000000000000000e+00  1.3634663737603616e+00 8.8518656367229431e-01 0.0000000000000000e+00  1.6333360883763868e+00 7.8265104040157030e-01 0.0000000000000000e+00  2.9069423619733509e-01 1.7348097660016423e-01 0.0000000000000000e+00  4.9760338522310393e-01 -3.1960285240270048e-01 0.0000000000000000e+00  9.7303721663728943e-02 5.2477493037803187e-04 0.0000000000000000e+00  8.3740961978818529e-02 -3.1097119603019068e-03 0.0000000000000000e+00  1.2173032222631148e+00 -8.7281901357022762e-01 0.0000000000000000e+00  3.0386285307784298e+00 1.6603174590918229e-01 0.0000000000000000e+00  1.3814026270404933e+00 8.2728076760533320e-01 0.0000000000000000e+00  2.8726342357089205e+00 2.6957073861194758e-01 0.0000000000000000e+00  2.9747093670944316e+00 2.2000389587098246e-01 0.0000000000000000e+00  1.4933058501877152e+00 -7.4801063237323806e-01 0.0000000000000000e+00  -2.9877121809732073e-03 1.0304721744954969e-04 0.0000000000000000e+00  6.8948202315200413e-01 5.3086441569976628e-01 0.0000000000000000e+00  1.0856517627392557e+00 -8.4996821931496291e-01 0.0000000000000000e+00  1.2925760337485195e-01 3.5063236393190428e-01 0.0000000000000000e+00  2.8288145756955800e+00 -6.2250665971846819e-01 0.0000000000000000e+00  2.4023294253100713e-01 5.2812190752343846e-01 0.0000000000000000e+00  2.5646187557253701e+00 -6.9571049661445816e-01 0.0000000000000000e+00  2.2673702198991070e+00 -6.9686713442156223e-01 0.0000000000000000e+00  2.6588865033580045e+00 -1.3475801861709782e+00 0.0000000000000000e+00  2.4542390549537516e+00 -9.9303876818758896e-01 0.0000000000000000e+00  3.0546893470940004e+00 -1.2598294550069247e+00 0.0000000000000000e+00  2.9635383553609138e+00 -5.1132787652052281e-01 0.0000000000000000e+00  2.3147997729154564e+00 -1.1100511627859764e+00 0.0000000000000000e+00  2.9198784745420734e+00 -6.2195331002748155e-01 0.0000000000000000e+00  2.3858341585715919e+00 -1.3173443653161552e+00 0.0000000000000000e+00  2.9771696628683255e+00 -1.4547600197743362e+00 0.0000000000000000e+00  2.8676360335536182e+00 -1.1923171221781672e+00 0.0000000000000000e+00  1.7082374309132145e-01 5.9295152617223335e-01 0.0000000000000000e+00  2.3325234521829011e-01 6.5411606007508583e-01 0.0000000000000000e+00  1.8334199551264399e-01 6.4616215666694532e-01 0.0000000000000000e+00  1.3858235779599966e+00 7.4140434317910753e-01 0.0000000000000000e+00  1.4180704828870401e+00 7.3105571462700369e-01 0.0000000000000000e+00  1.4104034824670015e+00 7.3360657871741086e-01 0.0000000000000000e+00  2.0761869537977145e+00 -3.1885629331388671e-01 0.0000000000000000e+00  2.5778148342744207e+00 2.8642940441847209e-01 0.0000000000000000e+00  6.2615888821461241e-02 1.3122145213097104e-02 0.0000000000000000e+00  2.7936263473481375e+00 1.2804784630635918e-01 0.0000000000000000e+00  2.4874056363124325e-01 -9.8419368613194697e-02 0.0000000000000000e+00  1.8293419035119405e+00 -1.1560535930131521e-01 0.0000000000000000e+00  3.0412957611594487e+00 2.6142900594337959e-01 0.0000000000000000e+00  2.7707629213203813e+00 1.2902522400651753e-01 0.0000000000000000e+00  5.9021991982095856e-01 3.4904189248352846e-01 0.0000000000000000e+00  -1.7810414614811369e-04 -1.6229439110784664e-02 0.0000000000000000e+00  4.4822109974851093e-01 2.5444956737403329e-01 0.0000000000000000e+00  4.7659120573885584e-02 -2.1279114034325763e-02 0.0000000000000000e+00  1.9161329710802331e+00 1.6985614217145081e-01 0.0000000000000000e+00  1.4994636124679570e+00 -6.1752692924837693e-01 0.0000000000000000e+00  1.4686389802109501e-01 3.6645903564976511e-02 0.0000000000000000e+00  1.0764973157963149e+00 8.4464846933279292e-01 0.0000000000000000e+00  2.1959682189052283e+00 3.6100298098854855e-01 0.0000000000000000e+00  1.1287858642927739e+00 9.5468202967179716e-01 0.0000000000000000e+00  8.2796358903890610e-01 -5.6085414954323431e-01 0.0000000000000000e+00  2.0110679438012329e+00 4.8004157716258838e-01 0.0000000000000000e+00  1.3812809289767463e+00 7.1177881395413090e-01 0.0000000000000000e+00  8.8231158065776139e-01 7.0616962117424620e-01 0.0000000000000000e+00  -3.0843242235540549e-02 -8.2599870009653735e-03 0.0000000000000000e+00  1.9248962941474543e+00 1.5995139014884110e-01 0.0000000000000000e+00  2.6016337587917020e+00 -3.6315346507385310e-01 0.0000000000000000e+00  6.3560813066247016e-02 8.2496785243442255e-02 0.0000000000000000e+00  8.9105630211283915e-01 -6.4165771783950953e-01 0.0000000000000000e+00  1.2162856392036272e+00 -8.4795213633549182e-01 0.0000000000000000e+00  2.8341149866397108e+00 -7.9374464233795433e-02 0.0000000000000000e+00  2.8053363765514377e-01 1.2467031210728387e-01 0.0000000000000000e+00  2.0336378575104311e-01 -2.8540412203179599e-01 0.0000000000000000e+00  2.9800175747773370e+00 2.9479333493109700e-01 0.0000000000000000e+00  1.4376291526809866e+00 8.5627280908514614e-01 0.0000000000000000e+00  3.2928383477009202e-02 -1.0901901923352504e-01 0.0000000000000000e+00  2.5039932207638488e-01 -1.3785714031852708e-01 0.0000000000000000e+00  1.5040585024748137e+00 8.1080475681633557e-01 0.0000000000000000e+00  1.5964205317950795e+00 7.9134672157297081e-01 0.0000000000000000e+00  1.8102236981717277e+00 7.2042189152927527e-01 0.0000000000000000e+00  1.2090668126465485e+00 -8.8894405579501024e-01 0.0000000000000000e+00  2.5274277601612427e+00 2.9998835041901456e-01 0.0000000000000000e+00  1.0994270067321068e+00 -8.5549578034258922e-01 0.0000000000000000e+00  3.3470705304546966e-01 3.1134427644746360e-01 0.0000000000000000e+00  5.0497665364726463e-01 -4.5571879294694784e-01 0.0000000000000000e+00  1.4231448584939121e+00 7.7511522343761996e-01 0.0000000000000000e+00  1.5917821979337345e+00 -7.3604264673986264e-01 0.0000000000000000e+00  8.0191833948173763e-01 6.7676986134721706e-01 0.0000000000000000e+00  2.9669508873332733e+00 -3.7237809786531673e-01 0.0000000000000000e+00  1.6147857894100762e-