<?xml version="1.0"?>
<VTKFile type="UnstructuredGrid"  version="0.1"  >
<UnstructuredGrid>
<Piece  NumberOfPoints="2868" NumberOfCells="5400">
<Points>
<DataArray  type="Float64"  NumberOfComponents="3"  format="ascii">0.534923 0.326073 0  0.510642 0.314196 0  0.466125 0.293082 0  0.436448 0.281205 0  0.409468 0.275927 0  0.368998 0.270648 0  0.35281 0.275927 0  0.381139 0.302319 0  0.405421 0.326073 0  0.410817 0.33531 0  0.408119 0.349826 0  0.400025 0.357744 0  0.375743 0.368301 0  0.329878 0.392055 0  0.297502 0.432963 0  0.282663 0.476511 0  0.285361 0.524018 0  0.298851 0.572845 0  0.317737 0.6045160000000001 0  0.337972 0.6361869999999999 0  0.360904 0.674457 0  0.368998 0.69953 0  0.359555 0.7219640000000001 0  0.360904 0.757594 0  0.370347 0.766831 0  0.381139 0.762872 0  0.390582 0.741758 0  0.404072 0.720644 0  0.424307 0.707448 0  0.447239 0.702169 0  0.480964 0.704808 0  0.479615 0.6889729999999999 0  0.468823 0.675776 0  0.447239 0.6691780000000001 0  0.428354 0.6691780000000001 0  0.410817 0.6639 0  0.404072 0.653343 0  0.395978 0.628269 0  0.387884 0.59132 0  0.389233 0.576804 0  0.397327 0.557009 0  0.410817 0.547772 0  0.424307 0.546452 0  0.437797 0.55305 0  0.44589 0.5662469999999999 0  0.441843 0.582082 0  0.439145 0.5979179999999999 0  0.449937 0.609795 0  0.468823 0.603196 0  0.479615 0.59 0  0.489058 0.570205 0  0.494454 0.546452 0  0.505246 0.522699 0  0.522783 0.509502 0  0.55246 0.494986 0  0.586185 0.484429 0  0.615863 0.48047 0  0.64554 0.473872 0  0.6671240000000001 0.461995 0  0.683312 0.451438 0  0.696802 0.435603 0  0.703547 0.417128 0  0.7116400000000001 0.393374 0  0.7183850000000001 0.37226 0  0.7251300000000001 0.364342 0  0.739969 0.353785 0  0.7453650000000001 0.344548 0  0.7453650000000001 0.327393 0  0.737271 0.318155 0  0.7183850000000001 0.316835 0  0.7008490000000001 0.319475 0  0.677916 0.318155 0  0.650936 0.316835 0  0.610467 0.318155 0  0.57944 0.324753 0  0.559205 0.328712 0  0.5389699999999999 0.326073 0  1 1 0  1 0 0  0 0 0  0 1 0  0.532238 0.32476 0  0.528748 0.323052 0  0.52421 0.320833 0  0.518311 0.317947 0  0.503447 0.310783 0  0.494093 0.306347 0  0.481933 0.30058 0  0.452151 0.28749 0  0.392327 0.273691 0  0.379141 0.271971 0  0.360474 0.283066 0  0.369797 0.291752 0  0.391424 0.31238 0  0.399335 0.32012 0  0.40958 0.341964 0  0.393939 0.36039 0  0.386028 0.36383 0  0.364248 0.374254 0  0.349304 0.381994 0  0.315801 0.409841 0  0.292986 0.551616 0  0.350934 0.657818 0  0.360127 0.737055 0  0.360566 0.748664 0  0.385245 0.753692 0  0.396447 0.732578 0  0.466301 0.703661 0  0.459439 0.672908 0  0.418442 0.666195 0  0.400553 0.642441 0  0.39255 0.612619 0  0.389913 0.60058 0  0.392752 0.568197 0  0.444131 0.573132 0  0.458149 0.606926 0  0.5005540000000001 0.533026 0  0.571522 0.489019 0  0.632637 0.476741 0  0.689177 0.444553 0  0.708121 0.403702 0  0.715453 0.38144 0  0.732406 0.359166 0  0.7453650000000001 0.337089 0  0.72906 0.317581 0  0.629879 0.317522 0  0.59293 0.321884 0  0.568003 0.326991 0  0.55202 0.327775 0  0.546493 0.327054 0  0.542241 0.326499 0  1 0.9 0  1 0.8 0  1 0.7 0  1 0.6 0  1 0.5 0  1 0.4 0  1 0.3 0  1 0.2 0  1 0.1 0  0.9 0 0  0.8 0 0  0.7 0 0  0.6 0 0  0.5 0 0  0.4 0 0  0.3 0 0  0.2 0 0  0.1 0 0  0.1 1 0  0.2 1 0  0.3 1 0  0.4 1 0  0.5 1 0  0.6 1 0  0.7 1 0  0.8 1 0  0.9 1 0  0 0.1 0  0 0.2 0  0 0.3 0  0 0.4 0  0 0.5 0  0 0.6 0  0 0.7 0  0 0.8 0  0 0.9 0  0.535686 0.5031910000000001 0  0.753987 0.733359 0  0.167145 0.741436 0  0.173378 0.257204 0  0.733497 0.159862 0  0.554096 0.15788 0  0.849187 0.479053 0  0.488793 0.838452 0  0.138507 0.5592 0  0.30686 0.154944 0  0.348904 0.890523 0  0.058006 0.065099 0  0.06984899999999999 0.937917 0  0.93633 0.939704 0  0.934625 0.053613 0  0.343397 0.333452 0  0.473272 0.639943 0  0.433266 0.638072 0  0.415174 0.58269 0  0.533435 0.545042 0  0.390848 0.340652 0  0.53655 0.320242 0  0.127966 0.393775 0  0.83861 0.850455 0  0.635242 0.8551299999999999 0  0.852158 0.633441 0  0.653427 0.626848 0  0.861226 0.24292 0  0.166128 0.12976 0  0.216875 0.8698709999999999 0  0.458305 0.11179 0  0.84446 0.101633 0  0.202024 0.642528 0  0.644825 0.115855 0  0.671342 0.218358 0  0.251354 0.286186 0  0.262388 0.75153 0  0.063044 0.751571 0  0.068189 0.242962 0  0.435781 0.9053949999999999 0  0.934144 0.451133 0  0.568393 0.237622 0  0.814984 0.395506 0  0.752951 0.517227 0  0.456254 0.780699 0  0.073352 0.531116 0  0.337731 0.206071 0  0.363213 0.960371 0  0.330742 0.363592 0  0.516613 0.55705 0  0.369057 0.332992 0  0.500926 0.617309 0  0.498004 0.665534 0  0.412142 0.61178 0  0.454233 0.6366039999999999 0  0.422782 0.567496 0  0.541193 0.5214800000000001 0  0.439761 0.65557 0  0.5163 0.533672 0  0.414775 0.64562 0  0.40073 0.576135 0  0.430362 0.5880339999999999 0  0.385432 0.351492 0  0.400298 0.335397 0  0.398325 0.348194 0  0.528702 0.314885 0  0.540814 0.322334 0  0.534477 0.322953 0  0.619095 0.743583 0  0.885162 0.737972 0  0.08076 0.668849 0  0.90734 0.36634 0  0.09468699999999999 0.868937 0  0.759838 0.912152 0  0.901518 0.540898 0  0.747285 0.607479 0  0.229182 0.071641 0  0.06915399999999999 0.450091 0  0.244775 0.203309 0  0.076534 0.331755 0  0.897847 0.167826 0  0.578909 0.911415 0  0.07713299999999999 0.146341 0  0.477215 0.203448 0  0.922631 0.869341 0  0.517415 0.074785 0  0.297026 0.827793 0  0.7832710000000001 0.246505 0  0.74519 0.061079 0  0.36033 0.069068 0  0.210313 0.475228 0  0.859426 0.928758 0  0.5745479999999999 0.609182 0  0.243069 0.383398 0  0.283099 0.934598 0  0.417416 0.843141 0  0.643942 0.553164 0  0.112687 0.079336 0  0.281357 0.658386 0  0.765043 0.436177 0  0.611361 0.198486 0  0.234496 0.58911 0  0.206479 0.702638 0  0.679608 0.155818 0  0.62682 0.259978 0  0.690538 0.264164 0  0.448938 0.956308 0  0.808154 0.328403 0  0.379583 0.91913 0  0.308083 0.297769 0  0.312358 0.730249 0  0.563101 0.278576 0  0.435597 0.746198 0  0.385475 0.225229 0  0.572248 0.518034 0  0.357864 0.35422 0  0.497647 0.641694 0  0.458101 0.655768 0  0.360474 0.310727 0  0.467038 0.620139 0  0.47798 0.659909 0  0.41102 0.628072 0  0.48324 0.609015 0  0.427544 0.617941 0  0.388633 0.328253 0  0.405336 0.599404 0  0.408351 0.565178 0  0.42395 0.600985 0  0.431562 0.576523 0  0.424905 0.6551979999999999 0  0.398064 0.58782 0  0.427739 0.557934 0  0.5192909999999999 0.303443 0  0.53142 0.320293 0  0.5449000000000001 0.323642 0  0.537166 0.323513 0  0.153974 0.920841 0  0.9181859999999999 0.67343 0  0.759946 0.820588 0  0.5375259999999999 0.783091 0  0.816532 0.545843 0  0.813991 0.178083 0  0.836774 0.702023 0  0.149815 0.318856 0  0.662287 0.923338 0  0.680146 0.791192 0  0.708961 0.663172 0  0.9372779999999999 0.287318 0  0.574622 0.6881660000000001 0  0.5894740000000001 0.076262 0  0.502822 0.926683 0  0.222269 0.811068 0  0.380457 0.164786 0  0.15321 0.684154 0  0.458063 0.051413 0  0.161702 0.056026 0  0.199351 0.198818 0  0.298946 0.09553200000000001 0  0.902465 0.795949 0  0.121139 0.791477 0  0.906269 0.112287 0  0.056109 0.822332 0  0.512172 0.13237 0  0.940964 0.741805 0  0.888887 0.408777 0  0.354543 0.825964 0  0.808736 0.068638 0  0.068507 0.394071 0  0.719105 0.563843 0  0.247287 0.149664 0  0.293062 0.237128 0  0.240524 0.434997 0  0.141255 0.623289 0  0.945202 0.160621 0  0.502914 0.247629 0  0.144669 0.480811 0  0.665025 0.060817 0  0.728047 0.224344 0  0.861995 0.313312 0  0.200068 0.534235 0  0.253262 0.965623 0  0.893804 0.49307 0  0.604391 0.572456 0  0.947088 0.345347 0  0.439372 0.227307 0  0.629847 0.159823 0  0.273405 0.880181 0  0.302744 0.776823 0  0.781502 0.295365 0  0.275342 0.349602 0  0.7283849999999999 0.472798 0  0.229136 0.246478 0  0.807794 0.480346 0  0.709476 0.112786 0  0.275506 0.694991 0  0.771674 0.394419 0  0.449715 0.861802 0  0.419159 0.799696 0  0.674851 0.503139 0  0.280443 0.61016 0  0.572443 0.192538 0  0.393113 0.87525 0  0.405555 0.948428 0  0.330942 0.934103 0  0.540509 0.597101 0  0.312763 0.6689310000000001 0  0.254368 0.540179 0  0.595265 0.25915 0  0.606679 0.234099 0  0.657131 0.279138 0  0.722458 0.279478 0  0.333 0.308056 0  0.351529 0.246142 0  0.455714 0.7257940000000001 0  0.585239 0.295143 0  0.340062 0.72492 0  0.545593 0.293773 0  0.555449 0.545426 0  0.414311 0.737314 0  0.590854 0.502323 0  0.350507 0.368444 0  0.484423 0.625665 0  0.483899 0.674542 0  0.378137 0.317274 0  0.446416 0.646404 0  0.373532 0.347654 0  0.446876 0.619769 0  0.466106 0.666068 0  0.437545 0.609254 0  0.434988 0.565726 0  0.41462 0.656829 0  0.418803 0.556961 0  0.398425 0.327446 0  0.517803 0.310421 0  0.549516 0.322918 0  0.57701 0.842889 0  0.8291269999999999 0.773906 0  0.643235 0.684732 0  0.134281 0.207734 0  0.865997 0.055966 0  0.680959 0.723345 0  0.165229 0.8415550000000001 0  0.54558 0.959672 0  0.783726 0.656439 0  0.913315 0.595533 0  0.699439 0.860667 0  0.785839 0.125076 0  0.551673 0.037713 0  0.9200970000000001 0.223214 0  0.206406 0.299726 0  0.087064 0.596401 0  0.935644 0.394252 0  0.964557 0.252582 0  0.230124 0.928346 0  0.120579 0.271764 0  0.8572149999999999 0.524082 0  0.7670979999999999 0.5551469999999999 0  0.936094 0.507131 0  0.804064 0.59585 0  0.700565 0.608273 0  0.429773 0.174231 0  0.117746 0.727333 0  0.5389620000000001 0.730231 0  0.862761 0.359173 0  0.821444 0.284046 0  0.193552 0.35818 0  0.234923 0.505555 0  0.193209 0.421217 0  0.220144 0.755896 0  0.594015 0.131642 0  0.283813 0.195855 0  0.517519 0.213961 0  0.553509 0.639116 0  0.280391 0.378018 0  0.852183 0.436817 0  0.746983 0.197173 0  0.821806 0.221318 0  0.449853 0.828453 0  0.883758 0.453926 0  0.183484 0.589542 0  0.348384 0.129314 0  0.255254 0.838525 0  0.504849 0.798516 0  0.320344 0.863432 0  0.611669 0.525425 0  0.265864 0.804962 0  0.72056 0.521442 0  0.613372 0.6101220000000001 0  0.481262 0.881068 0  0.655778 0.191988 0  0.701921 0.196918 0  0.5658260000000001 0.5731810000000001 0  0.46914 0.240927 0  0.343219 0.173284 0  0.888786 0.278502 0  0.244113 0.6750930000000001 0  0.739546 0.417914 0  0.784023 0.355942 0  0.326805 0.265549 0  0.248616 0.6
[...]
<PointData  Vectors="f_21"> 
<DataArray  type="Float64"  Name="f_21"  NumberOfComponents="3" format="ascii">1.4604745736815179e+00 4.7453730947563977e-01 0.0000000000000000e+00  1.4044891073960444e+00 5.0356669255853537e-01 0.0000000000000000e+00  1.2309964780217972e+00 5.4190609971941905e-01 0.0000000000000000e+00  1.0803323273534680e+00 5.4497817246427394e-01 0.0000000000000000e+00  9.3854775625246689e-01 5.2659516101104320e-01 0.0000000000000000e+00  7.0183236527866555e-01 4.8757724923400614e-01 0.0000000000000000e+00  5.6057864289489634e-01 4.4545947534637709e-01 0.0000000000000000e+00  3.9003442455646264e-01 5.6424325508105044e-01 0.0000000000000000e+00  2.9448551725702821e-01 6.5541165100242427e-01 0.0000000000000000e+00  2.5786057305543542e-01 6.7687108152210829e-01 0.0000000000000000e+00  1.9972834031136474e-01 6.6612196359629394e-01 0.0000000000000000e+00  1.6759755824650677e-01 6.3333139893040180e-01 0.0000000000000000e+00  1.2568606424167122e-01 5.3093014542375905e-01 0.0000000000000000e+00  5.7728861501526813e-02 3.2154197621811476e-01 0.0000000000000000e+00  -7.4111105709793535e-03 1.5991148890309545e-01 0.0000000000000000e+00  -3.8428154189808626e-02 3.9696995953990143e-02 0.0000000000000000e+00  -4.0277905624423717e-02 -7.1944376778133520e-02 0.0000000000000000e+00  -1.8166032979308678e-02 -1.9691952198339976e-01 0.0000000000000000e+00  2.1169559726690726e-02 -3.1062820542543079e-01 0.0000000000000000e+00  8.8489662740686703e-02 -4.3275915560990452e-01 0.0000000000000000e+00  2.1671532078025488e-01 -5.7886587374280440e-01 0.0000000000000000e+00  3.2204079353262655e-01 -6.3439002332319228e-01 0.0000000000000000e+00  4.2248580978416889e-01 -6.2304252042478248e-01 0.0000000000000000e+00  7.2474586578824252e-01 -6.9769957514709169e-01 0.0000000000000000e+00  9.7280827807755232e-01 -7.8385210243074610e-01 0.0000000000000000e+00  1.1764277024993446e+00 -8.1092457635618398e-01 0.0000000000000000e+00  1.4891232260379619e+00 -8.0893402148001592e-01 0.0000000000000000e+00  1.6475250724820572e+00 -7.4542627031779707e-01 0.0000000000000000e+00  1.7186532767189482e+00 -6.7022808638209797e-01 0.0000000000000000e+00  1.7554202746569567e+00 -6.1383651087230084e-01 0.0000000000000000e+00  1.8702928141930502e+00 -6.2131500052582012e-01 0.0000000000000000e+00  2.0556675487720604e+00 -6.7151597082552295e-01 0.0000000000000000e+00  2.1532406049489285e+00 -7.3815675213652299e-01 0.0000000000000000e+00  2.1916897227489152e+00 -8.5947468446818076e-01 0.0000000000000000e+00  2.1891188692607564e+00 -9.7246210320630488e-01 0.0000000000000000e+00  2.2200287075631682e+00 -1.0792982171387484e+00 0.0000000000000000e+00  2.2834194286562242e+00 -1.1205677539913705e+00 0.0000000000000000e+00  2.4347137144649609e+00 -1.1726554896400037e+00 0.0000000000000000e+00  2.6630782110291631e+00 -1.2260040795059006e+00 0.0000000000000000e+00  2.7530569716805675e+00 -1.2179452959943073e+00 0.0000000000000000e+00  2.8753933059767451e+00 -1.1681744726993499e+00 0.0000000000000000e+00  2.9324590338089154e+00 -1.0850141417551580e+00 0.0000000000000000e+00  2.9407002153871700e+00 -1.0016961847622601e+00 0.0000000000000000e+00  2.8999624456233830e+00 -9.1809060673146436e-01 0.0000000000000000e+00  2.8181084214085956e+00 -8.6765716354117062e-01 0.0000000000000000e+00  2.7196219290146439e+00 -8.9219148442684426e-01 0.0000000000000000e+00  2.6195224974343518e+00 -9.0800405831343756e-01 0.0000000000000000e+00  2.5370707190004507e+00 -8.3993056691533352e-01 0.0000000000000000e+00  2.5561257385373288e+00 -7.2474825953337074e-01 0.0000000000000000e+00  2.6059107789771399e+00 -6.6039622730085124e-01 0.0000000000000000e+00  2.6781526683838144e+00 -6.0557314470248991e-01 0.0000000000000000e+00  2.7617280823242609e+00 -5.7445414535365003e-01 0.0000000000000000e+00  2.8435969506475454e+00 -5.2957254482635996e-01 0.0000000000000000e+00  2.8869176124700178e+00 -4.6325285504455577e-01 0.0000000000000000e+00  2.9274986974469641e+00 -3.5410208159922107e-01 0.0000000000000000e+00  2.9480472705470198e+00 -2.3606873674727080e-01 0.0000000000000000e+00  2.9421694708348576e+00 -1.3446679929531674e-01 0.0000000000000000e+00  2.9308069255648332e+00 -2.9227726049963019e-02 0.0000000000000000e+00  2.9237214749939429e+00 4.8510762620899421e-02 0.0000000000000000e+00  2.9070663841132141e+00 1.1824473911298378e-01 0.0000000000000000e+00  2.8755662017785046e+00 1.9030723728566032e-01 0.0000000000000000e+00  2.8239921921890851e+00 2.4684487729984278e-01 0.0000000000000000e+00  2.7478314271808424e+00 2.9737673188931951e-01 0.0000000000000000e+00  2.6722455910028993e+00 3.1861904956842374e-01 0.0000000000000000e+00  2.6468053632771311e+00 3.1485873452110585e-01 0.0000000000000000e+00  2.5909632892768943e+00 3.2794313082906124e-01 0.0000000000000000e+00  2.5140479493663181e+00 3.4811215557411751e-01 0.0000000000000000e+00  2.3247785496679638e+00 3.8256990223106402e-01 0.0000000000000000e+00  2.1682651870612872e+00 4.0984200384723196e-01 0.0000000000000000e+00  2.0167682542434928e+00 4.1517399437962327e-01 0.0000000000000000e+00  1.9354947796632713e+00 4.1782887073247493e-01 0.0000000000000000e+00  1.8501301700518902e+00 4.3542134253126025e-01 0.0000000000000000e+00  1.7445661981075555e+00 4.5406577215790694e-01 0.0000000000000000e+00  1.5991617283541752e+00 4.6621436825728407e-01 0.0000000000000000e+00  1.5141784182416820e+00 4.6003646716708718e-01 0.0000000000000000e+00  1.4859596621341733e+00 4.5966424661244182e-01 0.0000000000000000e+00  1.4634183673505949e+00 4.7121612131894608e-01 0.0000000000000000e+00  1.7918558913059168e+00 4.4101235832047808e-01 0.0000000000000000e+00  1.5783029818753449e+00 -1.4920358559172084e-01 0.0000000000000000e+00  0.0000000000000000e+00 0.0000000000000000e+00 0.0000000000000000e+00  0.0000000000000000e+00 0.0000000000000000e+00 0.0000000000000000e+00  1.4569214746597545e+00 4.7775235301892827e-01 0.0000000000000000e+00  1.4506097879680304e+00 4.8199786607630635e-01 0.0000000000000000e+00  1.4408102524898228e+00 4.8750188454003868e-01 0.0000000000000000e+00  1.4262963969994924e+00 4.9466584984750323e-01 0.0000000000000000e+00  1.3819372335551330e+00 5.1121994745159749e-01 0.0000000000000000e+00  1.3494313570388197e+00 5.2083253990559630e-01 0.0000000000000000e+00  1.3026170051510424e+00 5.3118101505663240e-01 0.0000000000000000e+00  1.1648330607269601e+00 5.4614217557710276e-01 0.0000000000000000e+00  8.5026414852937404e-01 5.0939263459351902e-01 0.0000000000000000e+00  7.7691042993791171e-01 4.9739735871446139e-01 0.0000000000000000e+00  4.9131845304754956e-01 4.8939845126304277e-01 0.0000000000000000e+00  4.3891373745956586e-01 5.2405020596632024e-01 0.0000000000000000e+00  3.4851630806592870e-01 6.0144191457588325e-01 0.0000000000000000e+00  3.1793659707729249e-01 6.3160298715644070e-01 0.0000000000000000e+00  2.3132817645655013e-01 6.7196630396185719e-01 0.0000000000000000e+00  1.5680461612104199e-01 6.0827211931389324e-01 0.0000000000000000e+00  1.4292942120807756e-01 5.7515927980344506e-01 0.0000000000000000e+00  1.0433377264563579e-01 4.8000257978598371e-01 0.0000000000000000e+00  8.0574824318238841e-02 4.1254186886405309e-01 0.0000000000000000e+00  2.4251952475585790e-02 2.5054056799507712e-01 0.0000000000000000e+00  -3.0278750968101051e-02 -1.3936846489658605e-01 0.0000000000000000e+00  1.5407473450106934e-01 -5.1624171481850112e-01 0.0000000000000000e+00  5.1602040259128212e-01 -6.5896184546762793e-01 0.0000000000000000e+00  6.1325331487370993e-01 -6.8644791332735178e-01 0.0000000000000000e+00  1.3554646314975058e+00 -8.2628121149425449e-01 0.0000000000000000e+00  1.5680014612753317e+00 -7.8052249904220194e-01 0.0000000000000000e+00  1.7917918562959354e+00 -5.9572775558246305e-01 0.0000000000000000e+00  2.1713517616172244e+00 -7.8960548784950535e-01 0.0000000000000000e+00  2.2063910235445334e+00 -1.0328038286373920e+00 0.0000000000000000e+00  2.3488597462302669e+00 -1.1428705748044614e+00 0.0000000000000000e+00  2.5308381139692293e+00 -1.1956351752560068e+00 0.0000000000000000e+00  2.6055132979882263e+00 -1.2130063808494578e+00 0.0000000000000000e+00  2.8062867976100083e+00 -1.1963168828105242e+00 0.0000000000000000e+00  2.7753470847293742e+00 -8.7842981011981092e-01 0.0000000000000000e+00  2.5460950904868769e+00 -7.8934612485446232e-01 0.0000000000000000e+00  2.8079170660609871e+00 -5.4850353170923405e-01 0.0000000000000000e+00  2.9396921812355532e+00 -2.8677354784874570e-01 0.0000000000000000e+00  2.9380588448277210e+00 -7.6090108559217939e-02 0.0000000000000000e+00  2.8952934434371675e+00 1.5066737745777847e-01 0.0000000000000000e+00  2.7827077675315848e+00 2.7826045967311885e-01 0.0000000000000000e+00  2.7045121119655193e+00 3.1350770925280530e-01 0.0000000000000000e+00  2.6235979989633784e+00 3.1688430314338362e-01 0.0000000000000000e+00  2.4395884540502921e+00 3.7698491019367536e-01 0.0000000000000000e+00  2.0924496630822897e+00 4.1033733909139014e-01 0.0000000000000000e+00  1.6662925479013415e+00 4.6110778226775223e-01 0.0000000000000000e+00  1.5444616377684899e+00 4.6298668132464810e-01 0.0000000000000000e+00  1.4954955767043892e+00 4.5881891127007679e-01 0.0000000000000000e+00  1.4790856015045364e+00 4.6273531686572622e-01 0.0000000000000000e+00  1.4725114784640443e+00 4.6606199895347689e-01 0.0000000000000000e+00  1.4673411991989962e+00 4.6885876927994413e-01 0.0000000000000000e+00  2.0381350544201569e+00 4.6932967125030067e-01 0.0000000000000000e+00  2.3161259174377835e+00 4.7720739465758361e-01 0.0000000000000000e+00  2.6219432015588993e+00 4.3377008709681930e-01 0.0000000000000000e+00  2.8863891904726438e+00 3.0560118219342813e-01 0.0000000000000000e+00  2.9858424159094694e+00 8.5590604590429289e-02 0.0000000000000000e+00  2.8522887039715950e+00 -1.3755513189535098e-01 0.0000000000000000e+00  2.5061327390292356e+00 -2.7071098453615478e-01 0.0000000000000000e+00  2.1206330490682346e+00 -2.5657589451897822e-01 0.0000000000000000e+00  1.8285343246137833e+00 -1.9022022786263823e-01 0.0000000000000000e+00  1.4802492371445783e+00 1.1480350016055854e-01 0.0000000000000000e+00  1.3941305356854354e+00 3.6685975372840185e-01 0.0000000000000000e+00  1.3108339439982259e+00 5.5972190181011505e-01 0.0000000000000000e+00  1.2226936791912195e+00 6.9156212954009033e-01 0.0000000000000000e+00  1.1308052783433113e+00 7.3201461555713299e-01 0.0000000000000000e+00  1.0194317653875142e+00 6.6610041655797159e-01 0.0000000000000000e+00  8.5285045931484971e-01 5.1265864720495835e-01 0.0000000000000000e+00  6.1620585554179219e-01 3.2676051603249362e-01 0.0000000000000000e+00  3.3042425224608429e-01 1.7223409066245474e-01 0.0000000000000000e+00  3.9633635347091262e-01 -2.2245290694444492e-01 0.0000000000000000e+00  7.2082031805377522e-01 -4.2941062252465373e-01 0.0000000000000000e+00  9.5850800019204363e-01 -6.8849962986586399e-01 0.0000000000000000e+00  1.0612927056747594e+00 -8.3569217371754145e-01 0.0000000000000000e+00  1.1323972231764943e+00 -7.4532541858720402e-01 0.0000000000000000e+00  1.2608177362168302e+00 -5.1510694552052416e-01 0.0000000000000000e+00  1.4242736624440422e+00 -2.6214301042297078e-01 0.0000000000000000e+00  1.5772798016418175e+00 -2.7173467684009925e-02 0.0000000000000000e+00  1.6952908073127584e+00 2.0237548542886111e-01 0.0000000000000000e+00  0.0000000000000000e+00 0.0000000000000000e+00 0.0000000000000000e+00  0.0000000000000000e+00 0.0000000000000000e+00 0.0000000000000000e+00  0.0000000000000000e+00 0.0000000000000000e+00 0.0000000000000000e+00  0.0000000000000000e+00 0.0000000000000000e+00 0.0000000000000000e+00  0.0000000000000000e+00 0.0000000000000000e+00 0.0000000000000000e+00  0.0000000000000000e+00 0.0000000000000000e+00 0.0000000000000000e+00  0.0000000000000000e+00 0.0000000000000000e+00 0.0000000000000000e+00  0.0000000000000000e+00 0.0000000000000000e+00 0.0000000000000000e+00  0.0000000000000000e+00 0.0000000000000000e+00 0.0000000000000000e+00  2.9052464277253023e+00 -4.1517414206183273e-01 0.0000000000000000e+00  2.2725551944800055e+00 9.7401841764908365e-03 0.0000000000000000e+00  2.2213119230753731e-01 -7.6986353523128728e-02 0.0000000000000000e+00  2.4794219156950095e-01 5.4814714407984813e-02 0.0000000000000000e+00  1.6456843472060487e+00 4.5541162181703559e-01 0.0000000000000000e+00  1.2879197855336173e+00 6.3406995132927668e-01 0.0000000000000000e+00  2.9257860042445483e+00 1.3273777270326978e-01 0.0000000000000000e+00  1.3623869082450746e+00 -6.5447529130837323e-01 0.0000000000000000e+00  -1.9791010358475858e-02 -5.0635617477194647e-03 0.0000000000000000e+00  7.0939972670230400e-01 4.1575968388174350e-01 0.0000000000000000e+00  9.5430190553850169e-01 -7.2753523278905485e-01 0.0000000000000000e+00  1.4461774178136005e-01 5.6825784962268824e-02 0.0000000000000000e+00  2.0596670576539208e-01 -9.8781184042798911e-02 0.0000000000000000e+00  1.8783060633969424e+00 3.0465582348105569e-01 0.0000000000000000e+00  1.6486125547090613e+00 4.0438409456400150e-03 0.0000000000000000e+00  2.5563902460133808e-01 3.9844266746690538e-01 0.0000000000000000e+00  2.3632056090219513e+00 -7.0617418473934923e-01 0.0000000000000000e+00  2.3735053056177020e+00 -9.4208659912638482e-01 0.0000000000000000e+00  2.7161857000230598e+00 -1.0577149537891246e+00 0.0000000000000000e+00  2.7648473490016912e+00 -4.2479131326544062e-01 0.0000000000000000e+00  2.3625781499582860e-01 5.9633821711763313e-01 0.0000000000000000e+00  1.4531809552942823e+00 4.7498138376311189e-01 0.0000000000000000e+00  2.3735971157146173e-02 -2.6491818099467844e-02 0.0000000000000000e+00  2.0184184870055621e+00 1.0811151517316624e-01 0.0000000000000000e+00  1.6787602763568970e+00 -3.2234770094839343e-01 0.0000000000000000e+00  2.7081742878553521e+00 1.5843364424878859e-01 0.0000000000000000e+00  2.5088927927598372e+00 -8.0134573805422077e-02 0.0000000000000000e+00  2.1181663493353078e+00 1.2083515318560474e-01 0.0000000000000000e+00  3.7865137026187085e-01 1.5195156039383054e-01 0.0000000000000000e+00  5.6069594214360396e-01 -3.3307800322394027e-01 0.0000000000000000e+00  1.0598635340436153e+00 6.6509940786824440e-01 0.0000000000000000e+00  1.6658345563879609e+00 2.2662950805926232e-01 0.0000000000000000e+00  6.9963428223823024e-02 -6.5169348490119280e-02 0.0000000000000000e+00  1.4183733256646767e+00 5.9604755353816319e-01 0.0000000000000000e+00  1.6533622262982961e+00 5.2214152257611668e-01 0.0000000000000000e+00  3.2519603519274382e-01 1.5432838101963223e-01 0.0000000000000000e+00  4.3332704598531269e-01 -2.7355728844090910e-01 0.0000000000000000e+00  7.8056455601510005e-02 4.6711720631808984e-03 0.0000000000000000e+00  9.3474090014083772e-02 -1.3683685359723181e-02 0.0000000000000000e+00  1.1372902354115006e+00 -7.8557149972447271e-01 0.0000000000000000e+00  2.9285546673485339e+00 4.6791938270332858e-02 0.0000000000000000e+00  1.4178056485595285e+00 5.4999551849127915e-01 0.0000000000000000e+00  2.7659518666427680e+00 1.4986599334462794e-01 0.0000000000000000e+00  2.8713658575682470e+00 1.4725583032222236e-01 0.0000000000000000e+00  1.4306096526055885e+00 -6.5730567927676009e-01 0.0000000000000000e+00  -1.0494826789587347e-02 7.6768935529936317e-04 0.0000000000000000e+00  7.3644866948439791e-01 4.5255637414237621e-01 0.0000000000000000e+00  1.0003132483963777e+00 -7.8286044931391408e-01 0.0000000000000000e+00  1.4710340304318673e-01 3.3616730467415640e-01 0.0000000000000000e+00  2.7246758363447294e+00 -4.9109016073032480e-01 0.0000000000000000e+00  2.6381526463304528e-01 5.0741953129572448e-01 0.0000000000000000e+00  2.4810349351361216e+00 -5.6274713632845086e-01 0.0000000000000000e+00  2.2176111689231766e+00 -5.7032313590224526e-01 0.0000000000000000e+00  2.5348367679111230e+00 -1.0745885639632871e+00 0.0000000000000000e+00  2.3811626582127259e+00 -8.1500599162433174e-01 0.0000000000000000e+00  2.8105013919121817e+00 -1.0109694259742903e+00 0.0000000000000000e+00  2.8433215393413613e+00 -3.9462745616440603e-01 0.0000000000000000e+00  2.2707908944616229e+00 -9.0315094728659462e-01 0.0000000000000000e+00  2.8053604585227441e+00 -4.8910297270705494e-01 0.0000000000000000e+00  2.3294990760555030e+00 -1.0555778670805596e+00 0.0000000000000000e+00  2.7570963285066363e+00 -1.1469667748363079e+00 0.0000000000000000e+00  2.6824433609899043e+00 -9.6347408971153492e-01 0.0000000000000000e+00  1.9301544402705853e-01 5.7303747928715265e-01 0.0000000000000000e+00  2.5747835932085716e-01 6.3486457336460012e-01 0.0000000000000000e+00  2.0631144540391985e-01 6.2651612670057155e-01 0.0000000000000000e+00  1.4325421138782757e+00 4.8439714610642887e-01 0.0000000000000000e+00  1.4611525517322430e+00 4.7123146315731140e-01 0.0000000000000000e+00  1.4553661398497642e+00 4.7570713991514113e-01 0.0000000000000000e+00  2.0017957721989830e+00 -2.4596661297117875e-01 0.0000000000000000e+00  2.4160748476480718e+00 2.0463207460622312e-01 0.0000000000000000e+00  4.3584800913112377e-02 1.7064565063388701e-02 0.0000000000000000e+00  2.6993041981563124e+00 1.0370014367608564e-02 0.0000000000000000e+00  2.2103122535211428e-01 -8.3767135608904100e-02 0.0000000000000000e+00  1.7414743180865686e+00 -7.6986628774284749e-02 0.0000000000000000e+00  2.9283306621903766e+00 1.4843096192839700e-01 0.0000000000000000e+00  2.6709631060613090e+00 8.1057803383067228e-02 0.0000000000000000e+00  5.9338347030030547e-01 3.2007162428910418e-01 0.0000000000000000e+00  -3.9520010584960614e-03 -1.9050939470538712e-02 0.0000000000000000e+00  4.9078133943006558e-01 2.2708556331826060e-01 0.0000000000000000e+00  5.1029475515811502e-02 -3.2309080297978680e-02 0.0000000000000000e+00  1.9062207297201887e+00 6.1296892637090032e-02 0.0000000000000000e+00  1.4258465769698312e+00 -5.1141440741022171e-01 0.0000000000000000e+00  1.5568870124990725e-01 3.0736381874135361e-02 0.0000000000000000e+00  1.1210245515007060e+00 6.1380707260985534e-01 0.0000000000000000e+00  2.0509957978662645e+00 2.8296932890610815e-01 0.0000000000000000e+00  1.1624760660551701e+00 6.9863329559262055e-01 0.0000000000000000e+00  7.6219145701612900e-01 -5.1197763939325591e-01 0.0000000000000000e+00  1.9759127642225875e+00 3.1244391308987524e-01 0.0000000000000000e+00  1.4634228265990372e+00 4.6111553537618244e-01 0.0000000000000000e+00  8.8963892117611620e-01 5.7448191836877704e-01 0.0000000000000000e+00  -4.4919662271916704e-02 -5.3991336345452622e-03 0.0000000000000000e+00  1.8263065759876929e+00 1.3224464652556026e-01 0.0000000000000000e+00  2.5229697893588261e+00 -2.7914604887871491e-01 0.0000000000000000e+00  7.0717757503376652e-02 7.5204478229860219e-02 0.0000000000000000e+00  8.1997912866281586e-01 -5.9446409894829788e-01 0.0000000000000000e+00  1.1433796097065478e+00 -7.7165350354393525e-01 0.0000000000000000e+00  2.7387935909520369e+00 -5.9749383565020110e-02 0.0000000000000000e+00  2.8150738890255556e-01 1.1831410319314929e-01 0.0000000000000000e+00  1.3745458624621343e-01 -2.3939588753624352e-01 0.0000000000000000e+00  2.8702312245755537e+00 1.9828618845936513e-01 0.0000000000000000e+00  1.4765706900198612e+00 5.7333917114400623e-01 0.0000000000000000e+00  -7.5533193438151423e-03 -8.4070017558708812e-02 0.0000000000000000e+00  1.9618515333144151e-01 -1.0512659919783386e-01 0.0000000000000000e+00  1.5461945634784391e+00 5.3915870750007355e-01 0.0000000000000000e+00  1.6119821452248955e+00 5.1720028883735458e-01 0.0000000000000000e+00  1.8010640342446653e+00 4.8285864253092159e-01 0.0000000000000000e+00  1.1239358673162785e+00 -7.9589022086941263e-01 0.0000000000000000e+00  2.4381925270830607e+00 1.6959316750018122e-01 0.0000000000000000e+00  1.0200079101674804e+00 -7.8555762531034634e-01 0.0000000000000000e+00  3.7450030986507432e-01 2.8100441706457668e-01 0.0000000000000000e+00  4.3542962035519273e-01 -4.0327926869991310e-01 0.0000000000000000e+00  1.4563663722567568e+00 5.0285805854244070e-01 0.0000000000000000e+00  1.5394390057421949e+00 -6.5516215172063152e-01 0.0000000000000000e+00  8.5013459885314557e-01 5.4922320523380230e-01 0.0000000000000000e+00  2.8472582225510159e+00 -2.8204646410113304e-01 0.0000000000000000e+00  1.818879455715542