<?xml version="1.0"?>
<VTKFile type="UnstructuredGrid"  version="0.1"  >
<UnstructuredGrid>
<Piece  NumberOfPoints="2868" NumberOfCells="5400">
<Points>
<DataArray  type="Float64"  NumberOfComponents="3"  format="ascii">0.534923 0.326073 0  0.510642 0.314196 0  0.466125 0.293082 0  0.436448 0.281205 0  0.409468 0.275927 0  0.368998 0.270648 0  0.35281 0.275927 0  0.381139 0.302319 0  0.405421 0.326073 0  0.410817 0.33531 0  0.408119 0.349826 0  0.400025 0.357744 0  0.375743 0.368301 0  0.329878 0.392055 0  0.297502 0.432963 0  0.282663 0.476511 0  0.285361 0.524018 0  0.298851 0.572845 0  0.317737 0.6045160000000001 0  0.337972 0.6361869999999999 0  0.360904 0.674457 0  0.368998 0.69953 0  0.359555 0.7219640000000001 0  0.360904 0.757594 0  0.370347 0.766831 0  0.381139 0.762872 0  0.390582 0.741758 0  0.404072 0.720644 0  0.424307 0.707448 0  0.447239 0.702169 0  0.480964 0.704808 0  0.479615 0.6889729999999999 0  0.468823 0.675776 0  0.447239 0.6691780000000001 0  0.428354 0.6691780000000001 0  0.410817 0.6639 0  0.404072 0.653343 0  0.395978 0.628269 0  0.387884 0.59132 0  0.389233 0.576804 0  0.397327 0.557009 0  0.410817 0.547772 0  0.424307 0.546452 0  0.437797 0.55305 0  0.44589 0.5662469999999999 0  0.441843 0.582082 0  0.439145 0.5979179999999999 0  0.449937 0.609795 0  0.468823 0.603196 0  0.479615 0.59 0  0.489058 0.570205 0  0.494454 0.546452 0  0.505246 0.522699 0  0.522783 0.509502 0  0.55246 0.494986 0  0.586185 0.484429 0  0.615863 0.48047 0  0.64554 0.473872 0  0.6671240000000001 0.461995 0  0.683312 0.451438 0  0.696802 0.435603 0  0.703547 0.417128 0  0.7116400000000001 0.393374 0  0.7183850000000001 0.37226 0  0.7251300000000001 0.364342 0  0.739969 0.353785 0  0.7453650000000001 0.344548 0  0.7453650000000001 0.327393 0  0.737271 0.318155 0  0.7183850000000001 0.316835 0  0.7008490000000001 0.319475 0  0.677916 0.318155 0  0.650936 0.316835 0  0.610467 0.318155 0  0.57944 0.324753 0  0.559205 0.328712 0  0.5389699999999999 0.326073 0  1 1 0  1 0 0  0 0 0  0 1 0  0.532238 0.32476 0  0.528748 0.323052 0  0.52421 0.320833 0  0.518311 0.317947 0  0.503447 0.310783 0  0.494093 0.306347 0  0.481933 0.30058 0  0.452151 0.28749 0  0.392327 0.273691 0  0.379141 0.271971 0  0.360474 0.283066 0  0.369797 0.291752 0  0.391424 0.31238 0  0.399335 0.32012 0  0.40958 0.341964 0  0.393939 0.36039 0  0.386028 0.36383 0  0.364248 0.374254 0  0.349304 0.381994 0  0.315801 0.409841 0  0.292986 0.551616 0  0.350934 0.657818 0  0.360127 0.737055 0  0.360566 0.748664 0  0.385245 0.753692 0  0.396447 0.732578 0  0.466301 0.703661 0  0.459439 0.672908 0  0.418442 0.666195 0  0.400553 0.642441 0  0.39255 0.612619 0  0.389913 0.60058 0  0.392752 0.568197 0  0.444131 0.573132 0  0.458149 0.606926 0  0.5005540000000001 0.533026 0  0.571522 0.489019 0  0.632637 0.476741 0  0.689177 0.444553 0  0.708121 0.403702 0  0.715453 0.38144 0  0.732406 0.359166 0  0.7453650000000001 0.337089 0  0.72906 0.317581 0  0.629879 0.317522 0  0.59293 0.321884 0  0.568003 0.326991 0  0.55202 0.327775 0  0.546493 0.327054 0  0.542241 0.326499 0  1 0.9 0  1 0.8 0  1 0.7 0  1 0.6 0  1 0.5 0  1 0.4 0  1 0.3 0  1 0.2 0  1 0.1 0  0.9 0 0  0.8 0 0  0.7 0 0  0.6 0 0  0.5 0 0  0.4 0 0  0.3 0 0  0.2 0 0  0.1 0 0  0.1 1 0  0.2 1 0  0.3 1 0  0.4 1 0  0.5 1 0  0.6 1 0  0.7 1 0  0.8 1 0  0.9 1 0  0 0.1 0  0 0.2 0  0 0.3 0  0 0.4 0  0 0.5 0  0 0.6 0  0 0.7 0  0 0.8 0  0 0.9 0  0.535686 0.5031910000000001 0  0.753987 0.733359 0  0.167145 0.741436 0  0.173378 0.257204 0  0.733497 0.159862 0  0.554096 0.15788 0  0.849187 0.479053 0  0.488793 0.838452 0  0.138507 0.5592 0  0.30686 0.154944 0  0.348904 0.890523 0  0.058006 0.065099 0  0.06984899999999999 0.937917 0  0.93633 0.939704 0  0.934625 0.053613 0  0.343397 0.333452 0  0.473272 0.639943 0  0.433266 0.638072 0  0.415174 0.58269 0  0.533435 0.545042 0  0.390848 0.340652 0  0.53655 0.320242 0  0.127966 0.393775 0  0.83861 0.850455 0  0.635242 0.8551299999999999 0  0.852158 0.633441 0  0.653427 0.626848 0  0.861226 0.24292 0  0.166128 0.12976 0  0.216875 0.8698709999999999 0  0.458305 0.11179 0  0.84446 0.101633 0  0.202024 0.642528 0  0.644825 0.115855 0  0.671342 0.218358 0  0.251354 0.286186 0  0.262388 0.75153 0  0.063044 0.751571 0  0.068189 0.242962 0  0.435781 0.9053949999999999 0  0.934144 0.451133 0  0.568393 0.237622 0  0.814984 0.395506 0  0.752951 0.517227 0  0.456254 0.780699 0  0.073352 0.531116 0  0.337731 0.206071 0  0.363213 0.960371 0  0.330742 0.363592 0  0.516613 0.55705 0  0.369057 0.332992 0  0.500926 0.617309 0  0.498004 0.665534 0  0.412142 0.61178 0  0.454233 0.6366039999999999 0  0.422782 0.567496 0  0.541193 0.5214800000000001 0  0.439761 0.65557 0  0.5163 0.533672 0  0.414775 0.64562 0  0.40073 0.576135 0  0.430362 0.5880339999999999 0  0.385432 0.351492 0  0.400298 0.335397 0  0.398325 0.348194 0  0.528702 0.314885 0  0.540814 0.322334 0  0.534477 0.322953 0  0.619095 0.743583 0  0.885162 0.737972 0  0.08076 0.668849 0  0.90734 0.36634 0  0.09468699999999999 0.868937 0  0.759838 0.912152 0  0.901518 0.540898 0  0.747285 0.607479 0  0.229182 0.071641 0  0.06915399999999999 0.450091 0  0.244775 0.203309 0  0.076534 0.331755 0  0.897847 0.167826 0  0.578909 0.911415 0  0.07713299999999999 0.146341 0  0.477215 0.203448 0  0.922631 0.869341 0  0.517415 0.074785 0  0.297026 0.827793 0  0.7832710000000001 0.246505 0  0.74519 0.061079 0  0.36033 0.069068 0  0.210313 0.475228 0  0.859426 0.928758 0  0.5745479999999999 0.609182 0  0.243069 0.383398 0  0.283099 0.934598 0  0.417416 0.843141 0  0.643942 0.553164 0  0.112687 0.079336 0  0.281357 0.658386 0  0.765043 0.436177 0  0.611361 0.198486 0  0.234496 0.58911 0  0.206479 0.702638 0  0.679608 0.155818 0  0.62682 0.259978 0  0.690538 0.264164 0  0.448938 0.956308 0  0.808154 0.328403 0  0.379583 0.91913 0  0.308083 0.297769 0  0.312358 0.730249 0  0.563101 0.278576 0  0.435597 0.746198 0  0.385475 0.225229 0  0.572248 0.518034 0  0.357864 0.35422 0  0.497647 0.641694 0  0.458101 0.655768 0  0.360474 0.310727 0  0.467038 0.620139 0  0.47798 0.659909 0  0.41102 0.628072 0  0.48324 0.609015 0  0.427544 0.617941 0  0.388633 0.328253 0  0.405336 0.599404 0  0.408351 0.565178 0  0.42395 0.600985 0  0.431562 0.576523 0  0.424905 0.6551979999999999 0  0.398064 0.58782 0  0.427739 0.557934 0  0.5192909999999999 0.303443 0  0.53142 0.320293 0  0.5449000000000001 0.323642 0  0.537166 0.323513 0  0.153974 0.920841 0  0.9181859999999999 0.67343 0  0.759946 0.820588 0  0.5375259999999999 0.783091 0  0.816532 0.545843 0  0.813991 0.178083 0  0.836774 0.702023 0  0.149815 0.318856 0  0.662287 0.923338 0  0.680146 0.791192 0  0.708961 0.663172 0  0.9372779999999999 0.287318 0  0.574622 0.6881660000000001 0  0.5894740000000001 0.076262 0  0.502822 0.926683 0  0.222269 0.811068 0  0.380457 0.164786 0  0.15321 0.684154 0  0.458063 0.051413 0  0.161702 0.056026 0  0.199351 0.198818 0  0.298946 0.09553200000000001 0  0.902465 0.795949 0  0.121139 0.791477 0  0.906269 0.112287 0  0.056109 0.822332 0  0.512172 0.13237 0  0.940964 0.741805 0  0.888887 0.408777 0  0.354543 0.825964 0  0.808736 0.068638 0  0.068507 0.394071 0  0.719105 0.563843 0  0.247287 0.149664 0  0.293062 0.237128 0  0.240524 0.434997 0  0.141255 0.623289 0  0.945202 0.160621 0  0.502914 0.247629 0  0.144669 0.480811 0  0.665025 0.060817 0  0.728047 0.224344 0  0.861995 0.313312 0  0.200068 0.534235 0  0.253262 0.965623 0  0.893804 0.49307 0  0.604391 0.572456 0  0.947088 0.345347 0  0.439372 0.227307 0  0.629847 0.159823 0  0.273405 0.880181 0  0.302744 0.776823 0  0.781502 0.295365 0  0.275342 0.349602 0  0.7283849999999999 0.472798 0  0.229136 0.246478 0  0.807794 0.480346 0  0.709476 0.112786 0  0.275506 0.694991 0  0.771674 0.394419 0  0.449715 0.861802 0  0.419159 0.799696 0  0.674851 0.503139 0  0.280443 0.61016 0  0.572443 0.192538 0  0.393113 0.87525 0  0.405555 0.948428 0  0.330942 0.934103 0  0.540509 0.597101 0  0.312763 0.6689310000000001 0  0.254368 0.540179 0  0.595265 0.25915 0  0.606679 0.234099 0  0.657131 0.279138 0  0.722458 0.279478 0  0.333 0.308056 0  0.351529 0.246142 0  0.455714 0.7257940000000001 0  0.585239 0.295143 0  0.340062 0.72492 0  0.545593 0.293773 0  0.555449 0.545426 0  0.414311 0.737314 0  0.590854 0.502323 0  0.350507 0.368444 0  0.484423 0.625665 0  0.483899 0.674542 0  0.378137 0.317274 0  0.446416 0.646404 0  0.373532 0.347654 0  0.446876 0.619769 0  0.466106 0.666068 0  0.437545 0.609254 0  0.434988 0.565726 0  0.41462 0.656829 0  0.418803 0.556961 0  0.398425 0.327446 0  0.517803 0.310421 0  0.549516 0.322918 0  0.57701 0.842889 0  0.8291269999999999 0.773906 0  0.643235 0.684732 0  0.134281 0.207734 0  0.865997 0.055966 0  0.680959 0.723345 0  0.165229 0.8415550000000001 0  0.54558 0.959672 0  0.783726 0.656439 0  0.913315 0.595533 0  0.699439 0.860667 0  0.785839 0.125076 0  0.551673 0.037713 0  0.9200970000000001 0.223214 0  0.206406 0.299726 0  0.087064 0.596401 0  0.935644 0.394252 0  0.964557 0.252582 0  0.230124 0.928346 0  0.120579 0.271764 0  0.8572149999999999 0.524082 0  0.7670979999999999 0.5551469999999999 0  0.936094 0.507131 0  0.804064 0.59585 0  0.700565 0.608273 0  0.429773 0.174231 0  0.117746 0.727333 0  0.5389620000000001 0.730231 0  0.862761 0.359173 0  0.821444 0.284046 0  0.193552 0.35818 0  0.234923 0.505555 0  0.193209 0.421217 0  0.220144 0.755896 0  0.594015 0.131642 0  0.283813 0.195855 0  0.517519 0.213961 0  0.553509 0.639116 0  0.280391 0.378018 0  0.852183 0.436817 0  0.746983 0.197173 0  0.821806 0.221318 0  0.449853 0.828453 0  0.883758 0.453926 0  0.183484 0.589542 0  0.348384 0.129314 0  0.255254 0.838525 0  0.504849 0.798516 0  0.320344 0.863432 0  0.611669 0.525425 0  0.265864 0.804962 0  0.72056 0.521442 0  0.613372 0.6101220000000001 0  0.481262 0.881068 0  0.655778 0.191988 0  0.701921 0.196918 0  0.5658260000000001 0.5731810000000001 0  0.46914 0.240927 0  0.343219 0.173284 0  0.888786 0.278502 0  0.244113 0.6750930000000001 0  0.739546 0.417914 0  0.784023 0.355942 0  0.326805 0.265549 0  0.248616 0.6
[...]
<PointData  Vectors="f_21"> 
<DataArray  type="Float64"  Name="f_21"  NumberOfComponents="3" format="ascii">4.7827027303530695e-01 -8.3886386237341411e-03 0.0000000000000000e+00  4.6696966894777958e-01 -9.2382666704926061e-03 0.0000000000000000e+00  4.2353410247642725e-01 -6.8705230375958725e-03 0.0000000000000000e+00  3.7937686231103351e-01 -3.3190475978061031e-03 0.0000000000000000e+00  3.3407149499442274e-01 -2.5317288496865860e-04 0.0000000000000000e+00  2.4810550363562880e-01 1.4769813511070613e-02 0.0000000000000000e+00  1.9193146865991684e-01 2.0079054204724972e-02 0.0000000000000000e+00  1.1907348000589731e-01 7.0912830552512282e-02 0.0000000000000000e+00  8.4994562301625318e-02 1.0021004064910846e-01 0.0000000000000000e+00  7.2691881569971140e-02 1.0722114245865536e-01 0.0000000000000000e+00  5.3372524983572790e-02 1.0345475583125945e-01 0.0000000000000000e+00  4.2922697517779849e-02 9.2459030682805213e-02 0.0000000000000000e+00  3.1028815622267909e-02 5.8990963535107792e-02 0.0000000000000000e+00  1.7619295570941881e-02 6.4587856708293338e-03 0.0000000000000000e+00  6.3142583099075507e-03 -9.5041730821441260e-03 0.0000000000000000e+00  1.3967270931036773e-03 -6.9466372935020277e-03 0.0000000000000000e+00  -1.1710017544138988e-03 8.3204682344753913e-04 0.0000000000000000e+00  -1.4102414093052863e-03 2.6369042768886425e-03 0.0000000000000000e+00  4.1476806493532734e-03 -5.5819948485721247e-03 0.0000000000000000e+00  1.6692052446136928e-02 -2.2441460639893752e-02 0.0000000000000000e+00  4.5457148485144941e-02 -5.2743827888870283e-02 0.0000000000000000e+00  7.3709544868020435e-02 -6.7387436372739848e-02 0.0000000000000000e+00  1.0380935967098393e-01 -6.3052371089760612e-02 0.0000000000000000e+00  1.9889617479182198e-01 -7.6786782885342353e-02 0.0000000000000000e+00  2.7417586516140663e-01 -9.6753693065223051e-02 0.0000000000000000e+00  3.3481104261535216e-01 -1.0255574128382539e-01 0.0000000000000000e+00  4.2313638530041314e-01 -1.0314281841201448e-01 0.0000000000000000e+00  4.6560373501935326e-01 -8.7770897687287810e-02 0.0000000000000000e+00  4.8371461496811707e-01 -7.1736526331570225e-02 0.0000000000000000e+00  4.9414248928647875e-01 -6.4583187554411142e-02 0.0000000000000000e+00  5.4351314251381577e-01 -8.9749276059873068e-02 0.0000000000000000e+00  6.1942708040842331e-01 -1.0314797818837558e-01 0.0000000000000000e+00  6.6654424347017849e-01 -1.0265504248583512e-01 0.0000000000000000e+00  7.0364912884717357e-01 -7.4056146568754144e-02 0.0000000000000000e+00  7.2369033836110852e-01 -3.3009438439884423e-02 0.0000000000000000e+00  7.1953469887166632e-01 7.4512591241129638e-03 0.0000000000000000e+00  7.0142062137365468e-01 2.3710272728283070e-02 0.0000000000000000e+00  6.5325296056508664e-01 6.1047346524044921e-02 0.0000000000000000e+00  5.3205344571624846e-01 1.1962606023141995e-01 0.0000000000000000e+00  4.7343688833998643e-01 1.1981214994139225e-01 0.0000000000000000e+00  3.9095036854809267e-01 9.1264004712041324e-02 0.0000000000000000e+00  3.5203828533971043e-01 3.7376482448522576e-02 0.0000000000000000e+00  3.4601123665491579e-01 -1.7620319597792509e-02 0.0000000000000000e+00  3.7295529699750862e-01 -7.3614847597348668e-02 0.0000000000000000e+00  4.2895392497999013e-01 -1.0816476493474091e-01 0.0000000000000000e+00  4.9875224876945951e-01 -8.9513386692814334e-02 0.0000000000000000e+00  5.7244905064095153e-01 -6.8731032417835777e-02 0.0000000000000000e+00  6.3926482500583559e-01 -8.4709686161320755e-02 0.0000000000000000e+00  6.7774204081193801e-01 -9.7561858410710231e-02 0.0000000000000000e+00  7.0381692750524838e-01 -9.6742363470770157e-02 0.0000000000000000e+00  7.2712702096136916e-01 -9.3421006387836625e-02 0.0000000000000000e+00  7.4674537860202406e-01 -9.0507188983054696e-02 0.0000000000000000e+00  7.6309790547318057e-01 -8.3568935133472660e-02 0.0000000000000000e+00  7.7219000214687938e-01 -7.2531671627234090e-02 0.0000000000000000e+00  7.8362438762998043e-01 -5.3955387100216100e-02 0.0000000000000000e+00  7.9328135118177778e-01 -3.3766698585936228e-02 0.0000000000000000e+00  8.0002268744293004e-01 -1.8583935593207427e-02 0.0000000000000000e+00  8.1147744789197973e-01 -4.7306014918090181e-03 0.0000000000000000e+00  8.2515124518541438e-01 7.1287276119483258e-03 0.0000000000000000e+00  8.3477975832795026e-01 1.8012194764972570e-02 0.0000000000000000e+00  8.4443586236011836e-01 3.0517355189217679e-02 0.0000000000000000e+00  8.5034574045807909e-01 4.0979548031381353e-02 0.0000000000000000e+00  8.5290797598514079e-01 5.3899563497473470e-02 0.0000000000000000e+00  8.5146166944476309e-01 6.2343931117237489e-02 0.0000000000000000e+00  8.5109001613838220e-01 6.5886703423415488e-02 0.0000000000000000e+00  8.4516987641137420e-01 7.8482288124044411e-02 0.0000000000000000e+00  8.3158040293867297e-01 8.7282767629462674e-02 0.0000000000000000e+00  7.8710132829818580e-01 9.7962153304494676e-02 0.0000000000000000e+00  7.4124799587721313e-01 1.0161019797265579e-01 0.0000000000000000e+00  6.8767998908086536e-01 8.9724725515815160e-02 0.0000000000000000e+00  6.5559575353944344e-01 7.7695479009716475e-02 0.0000000000000000e+00  6.2453723687511464e-01 6.7558906056926757e-02 0.0000000000000000e+00  5.8551432041212037e-01 5.5278095461218466e-02 0.0000000000000000e+00  5.3046311965500270e-01 3.1624009146129207e-02 0.0000000000000000e+00  4.9629183362936119e-01 9.6972358115484675e-03 0.0000000000000000e+00  4.8483351175126665e-01 -1.5823377769969937e-03 0.0000000000000000e+00  4.7914987254255975e-01 -7.6228152110670152e-03 0.0000000000000000e+00  8.9959333892230908e-01 -2.0661659869358526e-01 0.0000000000000000e+00  9.0041460064788426e-01 1.7062735870931897e-01 0.0000000000000000e+00  0.0000000000000000e+00 0.0000000000000000e+00 0.0000000000000000e+00  0.0000000000000000e+00 0.0000000000000000e+00 0.0000000000000000e+00  4.7778737326396592e-01 -8.5758184356307648e-03 0.0000000000000000e+00  4.7666398400595961e-01 -8.7673507058644851e-03 0.0000000000000000e+00  4.7473479275700031e-01 -8.9837700493496202e-03 0.0000000000000000e+00  4.7173136588261200e-01 -9.1387648770732809e-03 0.0000000000000000e+00  4.6181537228165592e-01 -9.2211948331141595e-03 0.0000000000000000e+00  4.5409232574278041e-01 -9.0068959703629055e-03 0.0000000000000000e+00  4.4249062402313893e-01 -8.2794019620480823e-03 0.0000000000000000e+00  4.0481795136736654e-01 -5.3033131100791841e-03 0.0000000000000000e+00  3.0404503199704258e-01 4.0002228384263859e-03 0.0000000000000000e+00  2.7743342920853165e-01 8.8924801301669982e-03 0.0000000000000000e+00  1.6074397348587613e-01 4.3307722434307729e-02 0.0000000000000000e+00  1.3846455429042703e-01 5.7230122751550802e-02 0.0000000000000000e+00  1.0370285299531419e-01 8.2798857613955112e-02 0.0000000000000000e+00  9.3006554008839337e-02 9.2476610498747544e-02 0.0000000000000000e+00  6.3843592680693090e-02 1.0550459163071579e-01 0.0000000000000000e+00  3.9550986507408140e-02 8.4091839992341322e-02 0.0000000000000000e+00  3.5497214634031680e-02 7.3158284498015216e-02 0.0000000000000000e+00  2.5895758765734245e-02 4.3629891930272710e-02 0.0000000000000000e+00  2.1393606445070587e-02 2.5692757641721287e-02 0.0000000000000000e+00  1.1755679357293649e-02 -3.4148154718590643e-03 0.0000000000000000e+00  -1.9680313493312192e-03 3.3199574586668316e-03 0.0000000000000000e+00  3.0565784800761046e-02 -3.8454011355587722e-02 0.0000000000000000e+00  1.3285868404065143e-01 -7.1189817627975757e-02 0.0000000000000000e+00  1.6348678897801092e-01 -7.6808389500188312e-02 0.0000000000000000e+00  3.8604169044950054e-01 -1.0728247456056182e-01 0.0000000000000000e+00  4.4459676928551467e-01 -9.6168014360834039e-02 0.0000000000000000e+00  5.0960155238959770e-01 -7.0164687415457658e-02 0.0000000000000000e+00  6.8610900851636680e-01 -9.1373715145820683e-02 0.0000000000000000e+00  7.2250772357420578e-01 -1.0012992337909928e-02 0.0000000000000000e+00  6.8301855823596380e-01 3.6977288275703554e-02 0.0000000000000000e+00  6.1090690063943298e-01 8.6062264107074085e-02 0.0000000000000000e+00  5.6835979623609623e-01 1.0623883910003656e-01 0.0000000000000000e+00  4.3770907209987497e-01 1.0806178983070007e-01 0.0000000000000000e+00  4.5896336761544509e-01 -1.0047801743628407e-01 0.0000000000000000e+00  6.5720926366718846e-01 -9.2769277674269818e-02 0.0000000000000000e+00  7.5616706345712514e-01 -8.6579060272047523e-02 0.0000000000000000e+00  7.8911069765769559e-01 -4.2238071488300714e-02 0.0000000000000000e+00  8.0612364489408705e-01 -1.0690614416976827e-02 0.0000000000000000e+00  8.3958946534116752e-01 2.3179299898244250e-02 0.0000000000000000e+00  8.5250087178925238e-01 4.8454379217693321e-02 0.0000000000000000e+00  8.5221488422134006e-01 5.9409515303275998e-02 0.0000000000000000e+00  8.4919557959172043e-01 7.1028464742487765e-02 0.0000000000000000e+00  8.1565875503848340e-01 9.5814146603007425e-02 0.0000000000000000e+00  7.1467458130217032e-01 9.5855859419774786e-02 0.0000000000000000e+00  5.5563146906617222e-01 4.3055012485388101e-02 0.0000000000000000e+00  5.0847989098223667e-01 1.9000892495468012e-02 0.0000000000000000e+00  4.8880157330940882e-01 2.7732246703761239e-03 0.0000000000000000e+00  4.8316279608475649e-01 -4.1994689369165752e-03 0.0000000000000000e+00  4.8147432784350341e-01 -5.7857581235252328e-03 0.0000000000000000e+00  4.8014877198699885e-01 -6.8763134925480572e-03 0.0000000000000000e+00  8.9284337265661073e-01 -1.6198188160235349e-01 0.0000000000000000e+00  8.9587307847176234e-01 -9.5482647958614941e-02 0.0000000000000000e+00  9.3258924789029518e-01 -2.8598093153641483e-02 0.0000000000000000e+00  9.8011378326355325e-01 1.4180409166162367e-02 0.0000000000000000e+00  1.0093961422203828e+00 3.6962673606347606e-02 0.0000000000000000e+00  1.0098207445686624e+00 5.4015881585221040e-02 0.0000000000000000e+00  9.7927353442657350e-01 7.2115501949589086e-02 0.0000000000000000e+00  9.4020338461107011e-01 1.0445390800098460e-01 0.0000000000000000e+00  9.1705600121270392e-01 1.3965735267972582e-01 0.0000000000000000e+00  8.1515190013165473e-01 1.8652571797223294e-01 0.0000000000000000e+00  7.4388730597851704e-01 1.8925034662229590e-01 0.0000000000000000e+00  6.6776255698433196e-01 1.5927373076972626e-01 0.0000000000000000e+00  5.6816171573641494e-01 1.1806365263800779e-01 0.0000000000000000e+00  4.5518440705718488e-01 9.4657651084757904e-02 0.0000000000000000e+00  3.4926621840663513e-01 8.7858500610293794e-02 0.0000000000000000e+00  2.5801472143732423e-01 7.3591234155507682e-02 0.0000000000000000e+00  1.6798963314724710e-01 4.6742936152686133e-02 0.0000000000000000e+00  8.2415564440599803e-02 2.7611601230441148e-02 0.0000000000000000e+00  8.5316169681713336e-02 -2.5788915067343338e-02 0.0000000000000000e+00  1.7857303408356823e-01 -4.6184166107579812e-02 0.0000000000000000e+00  2.7574213690239135e-01 -8.3256042442881997e-02 0.0000000000000000e+00  3.5802140993939008e-01 -1.1509951012400839e-01 0.0000000000000000e+00  4.3968389918219503e-01 -1.2504448499126700e-01 0.0000000000000000e+00  5.3252103377514393e-01 -1.3165783534081518e-01 0.0000000000000000e+00  6.2812332395728543e-01 -1.4937784027399206e-01 0.0000000000000000e+00  7.1940666609867487e-01 -1.7368741324640039e-01 0.0000000000000000e+00  8.0789771933650112e-01 -1.9526921667549582e-01 0.0000000000000000e+00  0.0000000000000000e+00 0.0000000000000000e+00 0.0000000000000000e+00  0.0000000000000000e+00 0.0000000000000000e+00 0.0000000000000000e+00  0.0000000000000000e+00 0.0000000000000000e+00 0.0000000000000000e+00  0.0000000000000000e+00 0.0000000000000000e+00 0.0000000000000000e+00  0.0000000000000000e+00 0.0000000000000000e+00 0.0000000000000000e+00  0.0000000000000000e+00 0.0000000000000000e+00 0.0000000000000000e+00  0.0000000000000000e+00 0.0000000000000000e+00 0.0000000000000000e+00  0.0000000000000000e+00 0.0000000000000000e+00 0.0000000000000000e+00  0.0000000000000000e+00 0.0000000000000000e+00 0.0000000000000000e+00  7.7705923801118448e-01 -6.4482525542387564e-02 0.0000000000000000e+00  7.1113981698872286e-01 -5.2364630878289901e-02 0.0000000000000000e+00  6.0124221675192879e-02 2.7877923302119745e-02 0.0000000000000000e+00  7.7448043175789238e-02 -2.6951017167977431e-02 0.0000000000000000e+00  6.7982935427795277e-01 1.3046106631876891e-01 0.0000000000000000e+00  5.0358381233803484e-01 5.7703738987560003e-02 0.0000000000000000e+00  8.9223110852029197e-01 3.6758757145643951e-02 0.0000000000000000e+00  4.2224551215957173e-01 -9.1144234556657183e-02 0.0000000000000000e+00  7.3816266317960830e-03 6.7197310166907508e-03 0.0000000000000000e+00  2.3518808264623484e-01 2.2389417722128976e-02 0.0000000000000000e+00  2.9182006681526157e-01 -7.5471620773434667e-02 0.0000000000000000e+00  3.9956185666730842e-02 5.8030509653053458e-03 0.0000000000000000e+00  5.0132710031348809e-02 -5.9386363702661656e-03 0.0000000000000000e+00  8.3319337452539433e-01 -1.7745192456958825e-01 0.0000000000000000e+00  8.5045177849355169e-01 1.6614301366014059e-01 0.0000000000000000e+00  7.2692417089230160e-02 1.8781432386823074e-02 0.0000000000000000e+00  6.7660728444198281e-01 -1.0032508576656989e-01 0.0000000000000000e+00  6.7551094855427007e-01 -4.8587818657506665e-02 0.0000000000000000e+00  5.0169159089969761e-01 1.8645562253158224e-02 0.0000000000000000e+00  7.4917161371526819e-01 -6.5531746718009723e-02 0.0000000000000000e+00  6.5414006702316313e-02 8.0379995924657791e-02 0.0000000000000000e+00  4.7866430480747096e-01 -7.5440419206505016e-03 0.0000000000000000e+00  1.7782104769546447e-02 -1.8791563680671159e-02 0.0000000000000000e+00  7.3790650690215065e-01 -1.2020148917237376e-01 0.0000000000000000e+00  5.5497821079105580e-01 -8.6683059718024300e-02 0.0000000000000000e+00  8.3831684080755287e-01 -2.4052931470563390e-02 0.0000000000000000e+00  7.2287982795795103e-01 -1.7993866205039250e-02 0.0000000000000000e+00  8.2609291554863029e-01 1.1043061304890370e-01 0.0000000000000000e+00  1.1148249025316485e-01 1.5880174488822059e-03 0.0000000000000000e+00  1.5573227625962199e-01 -7.5016075975119509e-03 0.0000000000000000e+00  4.0262074419651056e-01 5.5262985254706749e-02 0.0000000000000000e+00  7.7771342178088521e-01 1.6214442083807853e-01 0.0000000000000000e+00  2.1554296274229855e-02 2.3553521984155251e-02 0.0000000000000000e+00  5.9591435086649069e-01 1.0478433926436509e-01 0.0000000000000000e+00  6.2428003970528201e-01 9.6405644347741834e-02 0.0000000000000000e+00  1.0366978595709214e-01 -3.1261864158283803e-02 0.0000000000000000e+00  1.1436294923738066e-01 1.8497667154700290e-02 0.0000000000000000e+00  2.3517386423238917e-02 1.4078157549316512e-02 0.0000000000000000e+00  3.0267528261074716e-02 -1.3123097496426143e-02 0.0000000000000000e+00  3.7234733832434441e-01 -1.0107243287552975e-01 0.0000000000000000e+00  9.5577703136324721e-01 4.5652316527704802e-02 0.0000000000000000e+00  5.1309309555702876e-01 3.5668301137877050e-02 0.0000000000000000e+00  8.7765467817478693e-01 5.9821410623424318e-02 0.0000000000000000e+00  8.2537510449418983e-01 2.3747755055261756e-02 0.0000000000000000e+00  4.1972924372055637e-01 -8.0779771628148325e-02 0.0000000000000000e+00  5.7927762159417353e-03 1.4791298937458139e-03 0.0000000000000000e+00  2.4846757268598246e-01 1.7900761590014760e-02 0.0000000000000000e+00  3.1938513829399789e-01 -9.4684394553828877e-02 0.0000000000000000e+00  3.8980621783787840e-02 6.9624224073392051e-03 0.0000000000000000e+00  7.3926630494132917e-01 -7.5377147861409338e-02 0.0000000000000000e+00  7.4527107025177577e-02 5.1529432516621523e-02 0.0000000000000000e+00  6.8767556954050924e-01 -8.6629716019051450e-02 0.0000000000000000e+00  6.6125512248792739e-01 -8.3970213455093423e-02 0.0000000000000000e+00  6.1327092250737114e-01 1.9988331922527518e-02 0.0000000000000000e+00  6.7347362477177164e-01 -8.9543480013773186e-02 0.0000000000000000e+00  4.3522950983047554e-01 -1.0968399878775639e-02 0.0000000000000000e+00  7.6513923280262230e-01 -6.1120491462611129e-02 0.0000000000000000e+00  6.9459833706055052e-01 -6.1931002284018911e-02 0.0000000000000000e+00  7.5596284246873535e-01 -7.6330471588075335e-02 0.0000000000000000e+00  6.8845862188476781e-01 1.5428362666638208e-04 0.0000000000000000e+00  4.7182734019146277e-01 7.4976236847637656e-02 0.0000000000000000e+00  5.2671005320745967e-01 -3.9077560111008970e-02 0.0000000000000000e+00  5.1321243970809186e-02 7.2518968260707473e-02 0.0000000000000000e+00  7.2530481306494449e-02 9.3251525179182879e-02 0.0000000000000000e+00  5.5551663965821500e-02 9.0260370367513609e-02 0.0000000000000000e+00  4.7478823989318159e-01 -8.0696415343937920e-03 0.0000000000000000e+00  4.8015920163996784e-01 -6.7909381072227895e-03 0.0000000000000000e+00  4.7810362527680367e-01 -8.2305538705225220e-03 0.0000000000000000e+00  6.0562068714820028e-01 -4.6215539371399099e-02 0.0000000000000000e+00  8.0888496908950924e-01 -6.9699655364118554e-02 0.0000000000000000e+00  1.6442484049104714e-02 1.5245775224336001e-02 0.0000000000000000e+00  9.2410246497758419e-01 6.8010056183107501e-02 0.0000000000000000e+00  5.7173478181201984e-02 6.2820471589305257e-03 0.0000000000000000e+00  6.6669449987328522e-01 -1.3191170376323691e-01 0.0000000000000000e+00  9.1498292185332752e-01 1.4985409913091340e-02 0.0000000000000000e+00  7.8160599612484327e-01 -7.1509684535061308e-03 0.0000000000000000e+00  1.7900385564458376e-01 3.1827766083401036e-02 0.0000000000000000e+00  7.3558291130494885e-03 -6.6264536568663244e-03 0.0000000000000000e+00  1.5628124862417900e-01 -9.9862162311452549e-03 0.0000000000000000e+00  2.0732094860684714e-02 -1.6013469358683533e-02 0.0000000000000000e+00  8.3692606277856774e-01 1.3604553777030684e-01 0.0000000000000000e+00  4.9973518733348099e-01 -1.0346508768078015e-01 0.0000000000000000e+00  4.4908235142344724e-02 -5.2257886505841390e-03 0.0000000000000000e+00  4.1053818734207764e-01 2.4647998675303238e-02 0.0000000000000000e+00  8.1441943390649241e-01 -1.4001356433940074e-01 0.0000000000000000e+00  4.6825721990000918e-01 7.2649046719037158e-02 0.0000000000000000e+00  2.1753152817791363e-01 -2.7101734975615684e-02 0.0000000000000000e+00  7.4540161240592173e-01 1.1188293858071628e-01 0.0000000000000000e+00  6.9161083907202803e-01 1.5939585655347560e-01 0.0000000000000000e+00  3.0504838549476831e-01 6.1555907190205546e-02 0.0000000000000000e+00  5.5982086233570521e-03 -9.2933567628775034e-03 0.0000000000000000e+00  7.5920006675939244e-01 -1.6123634810693085e-01 0.0000000000000000e+00  7.1069976678472480e-01 -4.3192205928196913e-02 0.0000000000000000e+00  2.7190411475002459e-02 -2.6391968999993867e-02 0.0000000000000000e+00  2.4044529103031409e-01 -5.5678717301247821e-02 0.0000000000000000e+00  3.4834866215595306e-01 -9.4744320175899621e-02 0.0000000000000000e+00  7.6347715039246866e-01 -1.1480414613871327e-02 0.0000000000000000e+00  7.8902251152231706e-02 9.4601316804281375e-03 0.0000000000000000e+00  3.0993197218789792e-02 1.1689060227780428e-02 0.0000000000000000e+00  8.5932632785293683e-01 5.1271797131973759e-02 0.0000000000000000e+00  5.6236219285637035e-01 7.0666973805801253e-02 0.0000000000000000e+00  5.0147479585238167e-03 1.2399288578371352e-02 0.0000000000000000e+00  5.1973604511157082e-02 2.9372438451826698e-02 0.0000000000000000e+00  6.2895645785411947e-01 1.1221196513435168e-01 0.0000000000000000e+00  5.7475323388727906e-01 6.1604001862859102e-02 0.0000000000000000e+00  6.4762557439034896e-01 9.5184621811323325e-02 0.0000000000000000e+00  3.9160197305100869e-01 -1.1067544461579716e-01 0.0000000000000000e+00  8.3284139390925549e-01 7.3128612586104758e-02 0.0000000000000000e+00  3.2560887538939837e-01 -9.1715253890951531e-02 0.0000000000000000e+00  1.1895813561388831e-01 -1.6070708352590148e-02 0.0000000000000000e+00  1.1101277760945537e-01 -4.5708798007593502e-03 0.0000000000000000e+00  5.0273450993630986e-01 1.5566674346458989e-02 0.0000000000000000e+00  4.4151743420754519e-01 -7.1920448586042338e-02 0.0000000000000000e+00  2.9245193100514733e-01 2.3531574195602339e-02 0.0000000000000000e+00  7.7031669447437578e-01 -4.2578942712874532e-02 0.0000000000000000e+00  4.819612597