<?xml version="1.0"?>
<VTKFile type="UnstructuredGrid"  version="0.1"  >
<UnstructuredGrid>
<Piece  NumberOfPoints="2868" NumberOfCells="5400">
<Points>
<DataArray  type="Float64"  NumberOfComponents="3"  format="ascii">0.534923 0.326073 0  0.510642 0.314196 0  0.466125 0.293082 0  0.436448 0.281205 0  0.409468 0.275927 0  0.368998 0.270648 0  0.35281 0.275927 0  0.381139 0.302319 0  0.405421 0.326073 0  0.410817 0.33531 0  0.408119 0.349826 0  0.400025 0.357744 0  0.375743 0.368301 0  0.329878 0.392055 0  0.297502 0.432963 0  0.282663 0.476511 0  0.285361 0.524018 0  0.298851 0.572845 0  0.317737 0.6045160000000001 0  0.337972 0.6361869999999999 0  0.360904 0.674457 0  0.368998 0.69953 0  0.359555 0.7219640000000001 0  0.360904 0.757594 0  0.370347 0.766831 0  0.381139 0.762872 0  0.390582 0.741758 0  0.404072 0.720644 0  0.424307 0.707448 0  0.447239 0.702169 0  0.480964 0.704808 0  0.479615 0.6889729999999999 0  0.468823 0.675776 0  0.447239 0.6691780000000001 0  0.428354 0.6691780000000001 0  0.410817 0.6639 0  0.404072 0.653343 0  0.395978 0.628269 0  0.387884 0.59132 0  0.389233 0.576804 0  0.397327 0.557009 0  0.410817 0.547772 0  0.424307 0.546452 0  0.437797 0.55305 0  0.44589 0.5662469999999999 0  0.441843 0.582082 0  0.439145 0.5979179999999999 0  0.449937 0.609795 0  0.468823 0.603196 0  0.479615 0.59 0  0.489058 0.570205 0  0.494454 0.546452 0  0.505246 0.522699 0  0.522783 0.509502 0  0.55246 0.494986 0  0.586185 0.484429 0  0.615863 0.48047 0  0.64554 0.473872 0  0.6671240000000001 0.461995 0  0.683312 0.451438 0  0.696802 0.435603 0  0.703547 0.417128 0  0.7116400000000001 0.393374 0  0.7183850000000001 0.37226 0  0.7251300000000001 0.364342 0  0.739969 0.353785 0  0.7453650000000001 0.344548 0  0.7453650000000001 0.327393 0  0.737271 0.318155 0  0.7183850000000001 0.316835 0  0.7008490000000001 0.319475 0  0.677916 0.318155 0  0.650936 0.316835 0  0.610467 0.318155 0  0.57944 0.324753 0  0.559205 0.328712 0  0.5389699999999999 0.326073 0  1 1 0  1 0 0  0 0 0  0 1 0  0.532238 0.32476 0  0.528748 0.323052 0  0.52421 0.320833 0  0.518311 0.317947 0  0.503447 0.310783 0  0.494093 0.306347 0  0.481933 0.30058 0  0.452151 0.28749 0  0.392327 0.273691 0  0.379141 0.271971 0  0.360474 0.283066 0  0.369797 0.291752 0  0.391424 0.31238 0  0.399335 0.32012 0  0.40958 0.341964 0  0.393939 0.36039 0  0.386028 0.36383 0  0.364248 0.374254 0  0.349304 0.381994 0  0.315801 0.409841 0  0.292986 0.551616 0  0.350934 0.657818 0  0.360127 0.737055 0  0.360566 0.748664 0  0.385245 0.753692 0  0.396447 0.732578 0  0.466301 0.703661 0  0.459439 0.672908 0  0.418442 0.666195 0  0.400553 0.642441 0  0.39255 0.612619 0  0.389913 0.60058 0  0.392752 0.568197 0  0.444131 0.573132 0  0.458149 0.606926 0  0.5005540000000001 0.533026 0  0.571522 0.489019 0  0.632637 0.476741 0  0.689177 0.444553 0  0.708121 0.403702 0  0.715453 0.38144 0  0.732406 0.359166 0  0.7453650000000001 0.337089 0  0.72906 0.317581 0  0.629879 0.317522 0  0.59293 0.321884 0  0.568003 0.326991 0  0.55202 0.327775 0  0.546493 0.327054 0  0.542241 0.326499 0  1 0.9 0  1 0.8 0  1 0.7 0  1 0.6 0  1 0.5 0  1 0.4 0  1 0.3 0  1 0.2 0  1 0.1 0  0.9 0 0  0.8 0 0  0.7 0 0  0.6 0 0  0.5 0 0  0.4 0 0  0.3 0 0  0.2 0 0  0.1 0 0  0.1 1 0  0.2 1 0  0.3 1 0  0.4 1 0  0.5 1 0  0.6 1 0  0.7 1 0  0.8 1 0  0.9 1 0  0 0.1 0  0 0.2 0  0 0.3 0  0 0.4 0  0 0.5 0  0 0.6 0  0 0.7 0  0 0.8 0  0 0.9 0  0.535686 0.5031910000000001 0  0.753987 0.733359 0  0.167145 0.741436 0  0.173378 0.257204 0  0.733497 0.159862 0  0.554096 0.15788 0  0.849187 0.479053 0  0.488793 0.838452 0  0.138507 0.5592 0  0.30686 0.154944 0  0.348904 0.890523 0  0.058006 0.065099 0  0.06984899999999999 0.937917 0  0.93633 0.939704 0  0.934625 0.053613 0  0.343397 0.333452 0  0.473272 0.639943 0  0.433266 0.638072 0  0.415174 0.58269 0  0.533435 0.545042 0  0.390848 0.340652 0  0.53655 0.320242 0  0.127966 0.393775 0  0.83861 0.850455 0  0.635242 0.8551299999999999 0  0.852158 0.633441 0  0.653427 0.626848 0  0.861226 0.24292 0  0.166128 0.12976 0  0.216875 0.8698709999999999 0  0.458305 0.11179 0  0.84446 0.101633 0  0.202024 0.642528 0  0.644825 0.115855 0  0.671342 0.218358 0  0.251354 0.286186 0  0.262388 0.75153 0  0.063044 0.751571 0  0.068189 0.242962 0  0.435781 0.9053949999999999 0  0.934144 0.451133 0  0.568393 0.237622 0  0.814984 0.395506 0  0.752951 0.517227 0  0.456254 0.780699 0  0.073352 0.531116 0  0.337731 0.206071 0  0.363213 0.960371 0  0.330742 0.363592 0  0.516613 0.55705 0  0.369057 0.332992 0  0.500926 0.617309 0  0.498004 0.665534 0  0.412142 0.61178 0  0.454233 0.6366039999999999 0  0.422782 0.567496 0  0.541193 0.5214800000000001 0  0.439761 0.65557 0  0.5163 0.533672 0  0.414775 0.64562 0  0.40073 0.576135 0  0.430362 0.5880339999999999 0  0.385432 0.351492 0  0.400298 0.335397 0  0.398325 0.348194 0  0.528702 0.314885 0  0.540814 0.322334 0  0.534477 0.322953 0  0.619095 0.743583 0  0.885162 0.737972 0  0.08076 0.668849 0  0.90734 0.36634 0  0.09468699999999999 0.868937 0  0.759838 0.912152 0  0.901518 0.540898 0  0.747285 0.607479 0  0.229182 0.071641 0  0.06915399999999999 0.450091 0  0.244775 0.203309 0  0.076534 0.331755 0  0.897847 0.167826 0  0.578909 0.911415 0  0.07713299999999999 0.146341 0  0.477215 0.203448 0  0.922631 0.869341 0  0.517415 0.074785 0  0.297026 0.827793 0  0.7832710000000001 0.246505 0  0.74519 0.061079 0  0.36033 0.069068 0  0.210313 0.475228 0  0.859426 0.928758 0  0.5745479999999999 0.609182 0  0.243069 0.383398 0  0.283099 0.934598 0  0.417416 0.843141 0  0.643942 0.553164 0  0.112687 0.079336 0  0.281357 0.658386 0  0.765043 0.436177 0  0.611361 0.198486 0  0.234496 0.58911 0  0.206479 0.702638 0  0.679608 0.155818 0  0.62682 0.259978 0  0.690538 0.264164 0  0.448938 0.956308 0  0.808154 0.328403 0  0.379583 0.91913 0  0.308083 0.297769 0  0.312358 0.730249 0  0.563101 0.278576 0  0.435597 0.746198 0  0.385475 0.225229 0  0.572248 0.518034 0  0.357864 0.35422 0  0.497647 0.641694 0  0.458101 0.655768 0  0.360474 0.310727 0  0.467038 0.620139 0  0.47798 0.659909 0  0.41102 0.628072 0  0.48324 0.609015 0  0.427544 0.617941 0  0.388633 0.328253 0  0.405336 0.599404 0  0.408351 0.565178 0  0.42395 0.600985 0  0.431562 0.576523 0  0.424905 0.6551979999999999 0  0.398064 0.58782 0  0.427739 0.557934 0  0.5192909999999999 0.303443 0  0.53142 0.320293 0  0.5449000000000001 0.323642 0  0.537166 0.323513 0  0.153974 0.920841 0  0.9181859999999999 0.67343 0  0.759946 0.820588 0  0.5375259999999999 0.783091 0  0.816532 0.545843 0  0.813991 0.178083 0  0.836774 0.702023 0  0.149815 0.318856 0  0.662287 0.923338 0  0.680146 0.791192 0  0.708961 0.663172 0  0.9372779999999999 0.287318 0  0.574622 0.6881660000000001 0  0.5894740000000001 0.076262 0  0.502822 0.926683 0  0.222269 0.811068 0  0.380457 0.164786 0  0.15321 0.684154 0  0.458063 0.051413 0  0.161702 0.056026 0  0.199351 0.198818 0  0.298946 0.09553200000000001 0  0.902465 0.795949 0  0.121139 0.791477 0  0.906269 0.112287 0  0.056109 0.822332 0  0.512172 0.13237 0  0.940964 0.741805 0  0.888887 0.408777 0  0.354543 0.825964 0  0.808736 0.068638 0  0.068507 0.394071 0  0.719105 0.563843 0  0.247287 0.149664 0  0.293062 0.237128 0  0.240524 0.434997 0  0.141255 0.623289 0  0.945202 0.160621 0  0.502914 0.247629 0  0.144669 0.480811 0  0.665025 0.060817 0  0.728047 0.224344 0  0.861995 0.313312 0  0.200068 0.534235 0  0.253262 0.965623 0  0.893804 0.49307 0  0.604391 0.572456 0  0.947088 0.345347 0  0.439372 0.227307 0  0.629847 0.159823 0  0.273405 0.880181 0  0.302744 0.776823 0  0.781502 0.295365 0  0.275342 0.349602 0  0.7283849999999999 0.472798 0  0.229136 0.246478 0  0.807794 0.480346 0  0.709476 0.112786 0  0.275506 0.694991 0  0.771674 0.394419 0  0.449715 0.861802 0  0.419159 0.799696 0  0.674851 0.503139 0  0.280443 0.61016 0  0.572443 0.192538 0  0.393113 0.87525 0  0.405555 0.948428 0  0.330942 0.934103 0  0.540509 0.597101 0  0.312763 0.6689310000000001 0  0.254368 0.540179 0  0.595265 0.25915 0  0.606679 0.234099 0  0.657131 0.279138 0  0.722458 0.279478 0  0.333 0.308056 0  0.351529 0.246142 0  0.455714 0.7257940000000001 0  0.585239 0.295143 0  0.340062 0.72492 0  0.545593 0.293773 0  0.555449 0.545426 0  0.414311 0.737314 0  0.590854 0.502323 0  0.350507 0.368444 0  0.484423 0.625665 0  0.483899 0.674542 0  0.378137 0.317274 0  0.446416 0.646404 0  0.373532 0.347654 0  0.446876 0.619769 0  0.466106 0.666068 0  0.437545 0.609254 0  0.434988 0.565726 0  0.41462 0.656829 0  0.418803 0.556961 0  0.398425 0.327446 0  0.517803 0.310421 0  0.549516 0.322918 0  0.57701 0.842889 0  0.8291269999999999 0.773906 0  0.643235 0.684732 0  0.134281 0.207734 0  0.865997 0.055966 0  0.680959 0.723345 0  0.165229 0.8415550000000001 0  0.54558 0.959672 0  0.783726 0.656439 0  0.913315 0.595533 0  0.699439 0.860667 0  0.785839 0.125076 0  0.551673 0.037713 0  0.9200970000000001 0.223214 0  0.206406 0.299726 0  0.087064 0.596401 0  0.935644 0.394252 0  0.964557 0.252582 0  0.230124 0.928346 0  0.120579 0.271764 0  0.8572149999999999 0.524082 0  0.7670979999999999 0.5551469999999999 0  0.936094 0.507131 0  0.804064 0.59585 0  0.700565 0.608273 0  0.429773 0.174231 0  0.117746 0.727333 0  0.5389620000000001 0.730231 0  0.862761 0.359173 0  0.821444 0.284046 0  0.193552 0.35818 0  0.234923 0.505555 0  0.193209 0.421217 0  0.220144 0.755896 0  0.594015 0.131642 0  0.283813 0.195855 0  0.517519 0.213961 0  0.553509 0.639116 0  0.280391 0.378018 0  0.852183 0.436817 0  0.746983 0.197173 0  0.821806 0.221318 0  0.449853 0.828453 0  0.883758 0.453926 0  0.183484 0.589542 0  0.348384 0.129314 0  0.255254 0.838525 0  0.504849 0.798516 0  0.320344 0.863432 0  0.611669 0.525425 0  0.265864 0.804962 0  0.72056 0.521442 0  0.613372 0.6101220000000001 0  0.481262 0.881068 0  0.655778 0.191988 0  0.701921 0.196918 0  0.5658260000000001 0.5731810000000001 0  0.46914 0.240927 0  0.343219 0.173284 0  0.888786 0.278502 0  0.244113 0.6750930000000001 0  0.739546 0.417914 0  0.784023 0.355942 0  0.326805 0.265549 0  0.248616 0.6
[...]
<PointData  Vectors="f_21"> 
<DataArray  type="Float64"  Name="f_21"  NumberOfComponents="3" format="ascii">1.4636357085403926e+00 4.9028277669168030e-01 0.0000000000000000e+00  1.4075384324845046e+00 5.1790387433432672e-01 0.0000000000000000e+00  1.2344033375043342e+00 5.5200889613734516e-01 0.0000000000000000e+00  1.0839910467475491e+00 5.5240467006898120e-01 0.0000000000000000e+00  9.4178533450237756e-01 5.3155076123488232e-01 0.0000000000000000e+00  7.0471741352376083e-01 4.8897078078030420e-01 0.0000000000000000e+00  5.6289424162203072e-01 4.4556963039678232e-01 0.0000000000000000e+00  3.9064853716379278e-01 5.6531820106423147e-01 0.0000000000000000e+00  2.9402824044808512e-01 6.5734940446629475e-01 0.0000000000000000e+00  2.5708117042345868e-01 6.7898648077048129e-01 0.0000000000000000e+00  1.9850384841646707e-01 6.6813382961297618e-01 0.0000000000000000e+00  1.6613184490410662e-01 6.3503822119098940e-01 0.0000000000000000e+00  1.2431706929681019e-01 5.3116322509514080e-01 0.0000000000000000e+00  5.9514638688095541e-02 3.1936779678738364e-01 0.0000000000000000e+00  -1.8661060333882784e-03 1.5889883031413457e-01 0.0000000000000000e+00  -3.1906316585162443e-02 4.1084963076890128e-02 0.0000000000000000e+00  -3.5327644516775322e-02 -6.7442291087512443e-02 0.0000000000000000e+00  -1.7150806567610390e-02 -1.9053955631838337e-01 0.0000000000000000e+00  2.0316654173152343e-02 -3.0430377700467176e-01 0.0000000000000000e+00  8.7530250342090457e-02 -4.2769982918910104e-01 0.0000000000000000e+00  2.1715045661421165e-01 -5.7563511376144594e-01 0.0000000000000000e+00  3.2384958627668087e-01 -6.3194086161450380e-01 0.0000000000000000e+00  4.2565892170762615e-01 -6.2056099341992943e-01 0.0000000000000000e+00  7.3165148750122000e-01 -6.9625723233206438e-01 0.0000000000000000e+00  9.8214459167719237e-01 -7.8318857806663966e-01 0.0000000000000000e+00  1.1871332114709603e+00 -8.1038730121285985e-01 0.0000000000000000e+00  1.5006747519291619e+00 -8.0840123356483884e-01 0.0000000000000000e+00  1.6590829020355047e+00 -7.4494164074543090e-01 0.0000000000000000e+00  1.7299721100568046e+00 -6.7027878788115858e-01 0.0000000000000000e+00  1.7665018679927880e+00 -6.1539601460538040e-01 0.0000000000000000e+00  1.8835510214637858e+00 -6.2926775491819398e-01 0.0000000000000000e+00  2.0714517947810407e+00 -6.8270120164369619e-01 0.0000000000000000e+00  2.1708198482232168e+00 -7.5241358308243134e-01 0.0000000000000000e+00  2.2102902219899101e+00 -8.7733511646310902e-01 0.0000000000000000e+00  2.2079048100358944e+00 -9.9272123537567913e-01 0.0000000000000000e+00  2.2395499630821849e+00 -1.1016493341334312e+00 0.0000000000000000e+00  2.3043014199435894e+00 -1.1437007325895487e+00 0.0000000000000000e+00  2.4587195459359119e+00 -1.1963019502763987e+00 0.0000000000000000e+00  2.6902861987892144e+00 -1.2492849340276664e+00 0.0000000000000000e+00  2.7809137091579803e+00 -1.2408756049877017e+00 0.0000000000000000e+00  2.9038405976782697e+00 -1.1906177288398814e+00 0.0000000000000000e+00  2.9612102062534591e+00 -1.1069260667291412e+00 0.0000000000000000e+00  2.9695085048082794e+00 -1.0230404349152196e+00 0.0000000000000000e+00  2.9285083120189008e+00 -9.3887367853319093e-01 0.0000000000000000e+00  2.8462068114059003e+00 -8.8813251660084902e-01 0.0000000000000000e+00  2.7472740513035721e+00 -9.1261984577923994e-01 0.0000000000000000e+00  2.6465765500739615e+00 -9.2787540451995432e-01 0.0000000000000000e+00  2.5632645662682312e+00 -8.5786099539707195e-01 0.0000000000000000e+00  2.5831388733121043e+00 -7.3996164498787242e-01 0.0000000000000000e+00  2.6340166096672237e+00 -6.7462048407728803e-01 0.0000000000000000e+00  2.7078916613848754e+00 -6.1957784674200822e-01 0.0000000000000000e+00  2.7938856539872075e+00 -5.8851495525322739e-01 0.0000000000000000e+00  2.8778238751216323e+00 -5.4276117547130620e-01 0.0000000000000000e+00  2.9218740796068370e+00 -4.7508209309073518e-01 0.0000000000000000e+00  2.9624648458059628e+00 -3.6426932619720759e-01 0.0000000000000000e+00  2.9827239032481230e+00 -2.4483680228108942e-01 0.0000000000000000e+00  2.9763806786992619e+00 -1.4116633484699739e-01 0.0000000000000000e+00  2.9639070972281298e+00 -3.2956445070267792e-02 0.0000000000000000e+00  2.9555259406112966e+00 4.6947202927914850e-02 0.0000000000000000e+00  2.9375118830010334e+00 1.1845409152231201e-01 0.0000000000000000e+00  2.9042690295774900e+00 1.9239609902556476e-01 0.0000000000000000e+00  2.8505361419291013e+00 2.5058581711596650e-01 0.0000000000000000e+00  2.7715465888844708e+00 3.0248234638021976e-01 0.0000000000000000e+00  2.6938486416954821e+00 3.2418067754061841e-01 0.0000000000000000e+00  2.6679649363277775e+00 3.2042036790433753e-01 0.0000000000000000e+00  2.6112587084409862e+00 3.3487622735925682e-01 0.0000000000000000e+00  2.5330030202833829e+00 3.5678361433628758e-01 0.0000000000000000e+00  2.3407049497503003e+00 3.9460403474398587e-01 0.0000000000000000e+00  2.1817978280848989e+00 4.2468995789951541e-01 0.0000000000000000e+00  2.0283130033341767e+00 4.3287795421306258e-01 0.0000000000000000e+00  1.9458623659781511e+00 4.3679998752740917e-01 0.0000000000000000e+00  1.8590869411966588e+00 4.5534461278655780e-01 0.0000000000000000e+00  1.7519862045610755e+00 4.7444184043852772e-01 0.0000000000000000e+00  1.6043835469667909e+00 4.8603412641067428e-01 0.0000000000000000e+00  1.5179492803018944e+00 4.7816441586913533e-01 0.0000000000000000e+00  1.4892652537921582e+00 4.7661329733202262e-01 0.0000000000000000e+00  1.4666239237689964e+00 4.8716063627800416e-01 0.0000000000000000e+00  1.7852702568692769e+00 4.6316840511689433e-01 0.0000000000000000e+00  1.5682925683578557e+00 -1.5516113004934176e-01 0.0000000000000000e+00  0.0000000000000000e+00 0.0000000000000000e+00 0.0000000000000000e+00  0.0000000000000000e+00 0.0000000000000000e+00 0.0000000000000000e+00  1.4601067631658402e+00 4.9337574424354963e-01 0.0000000000000000e+00  1.4537984031944120e+00 4.9745263904372750e-01 0.0000000000000000e+00  1.4439797920614161e+00 5.0272331028361539e-01 0.0000000000000000e+00  1.4294181539440944e+00 5.0953788361673547e-01 0.0000000000000000e+00  1.3849370081118009e+00 5.2496495777171182e-01 0.0000000000000000e+00  1.3524303082304709e+00 5.3373942543339925e-01 0.0000000000000000e+00  1.3057268193408373e+00 5.4287217799979837e-01 0.0000000000000000e+00  1.1684229760094162e+00 5.5493013778252642e-01 0.0000000000000000e+00  8.5325698207075884e-01 5.1269624135993364e-01 0.0000000000000000e+00  7.7983362001071377e-01 4.9956008024638149e-01 0.0000000000000000e+00  4.9313587498252470e-01 4.8969459026932860e-01 0.0000000000000000e+00  4.4015273933208554e-01 5.2469006059779766e-01 0.0000000000000000e+00  3.4862687486078020e-01 6.0287864153996129e-01 0.0000000000000000e+00  3.1771924399166551e-01 6.3332420694805425e-01 0.0000000000000000e+00  2.3034045253753746e-01 6.7403367028690309e-01 0.0000000000000000e+00  1.5527909201665091e-01 6.0969144461457803e-01 0.0000000000000000e+00  1.4139368739165453e-01 5.7611628103461576e-01 0.0000000000000000e+00  1.0337757888684837e-01 4.7936387362967131e-01 0.0000000000000000e+00  8.0628800190686412e-02 4.1099992782880612e-01 0.0000000000000000e+00  2.8152814302875473e-02 2.4850860186746257e-01 0.0000000000000000e+00  -2.7480601588155067e-02 -1.3343331314817017e-01 0.0000000000000000e+00  1.5377006109108504e-01 -5.1221804906292234e-01 0.0000000000000000e+00  5.2041839733285389e-01 -6.5699860104476848e-01 0.0000000000000000e+00  6.1885435787660148e-01 -6.8485532755668055e-01 0.0000000000000000e+00  1.3668184570142683e+00 -8.2577627596063330e-01 0.0000000000000000e+00  1.5796000995184261e+00 -7.7999739811171531e-01 0.0000000000000000e+00  1.8034550700634959e+00 -5.9978092150795648e-01 0.0000000000000000e+00  2.1893220104487336e+00 -8.0561887486841932e-01 0.0000000000000000e+00  2.2256062841539368e+00 -1.0542471012599219e+00 0.0000000000000000e+00  2.3711626903081182e+00 -1.1663084405100417e+00 0.0000000000000000e+00  2.5565273692397916e+00 -1.2192132621423510e+00 0.0000000000000000e+00  2.6321680972796622e+00 -1.2364074705662027e+00 0.0000000000000000e+00  2.8344088741142341e+00 -1.2189928077002821e+00 0.0000000000000000e+00  2.8032499189268698e+00 -8.9892755485796594e-01 0.0000000000000000e+00  2.5727411714223574e+00 -8.0601423053373000e-01 0.0000000000000000e+00  2.8413230330985400e+00 -5.6209368064670895e-01 0.0000000000000000e+00  2.9744391429762813e+00 -2.9618016408485454e-01 0.0000000000000000e+00  2.9717837851853415e+00 -8.1225059885057377e-02 0.0000000000000000e+00  2.9249911674687232e+00 1.5171794818090836e-01 0.0000000000000000e+00  2.8076550211521032e+00 2.8287941967041003e-01 0.0000000000000000e+00  2.7269110274810795e+00 3.1898240373215242e-01 0.0000000000000000e+00  2.6444155333730404e+00 3.2283116954806501e-01 0.0000000000000000e+00  2.4571998271571163e+00 3.8731230781448195e-01 0.0000000000000000e+00  2.1051321047167435e+00 4.2669146582010975e-01 0.0000000000000000e+00  1.6725374135765863e+00 4.8140260908385629e-01 0.0000000000000000e+00  1.5487402956608352e+00 4.8193094921954693e-01 0.0000000000000000e+00  1.4989750393288392e+00 4.7625888565590691e-01 0.0000000000000000e+00  1.4823808634114817e+00 4.7931610510674383e-01 0.0000000000000000e+00  1.4757765199445425e+00 4.8237300996826571e-01 0.0000000000000000e+00  1.4705747861014873e+00 4.8496296857032234e-01 0.0000000000000000e+00  2.0422214200238882e+00 4.9065664272099935e-01 0.0000000000000000e+00  2.3298537801475643e+00 4.9531290761600821e-01 0.0000000000000000e+00  2.6433162148380553e+00 4.4765222374713720e-01 0.0000000000000000e+00  2.9140234247913934e+00 3.1421243029256957e-01 0.0000000000000000e+00  3.0152864113327551e+00 8.7661564828113242e-02 0.0000000000000000e+00  2.8771978926390100e+00 -1.4296186035391054e-01 0.0000000000000000e+00  2.5187886386294718e+00 -2.7854179301097709e-01 0.0000000000000000e+00  2.1227327287709432e+00 -2.6243306003450867e-01 0.0000000000000000e+00  1.8240966295562799e+00 -1.9544825098745836e-01 0.0000000000000000e+00  1.4685435994087206e+00 1.1666338011738951e-01 0.0000000000000000e+00  1.3849139228922689e+00 3.8091676992252405e-01 0.0000000000000000e+00  1.3112204768442002e+00 5.8182190928982314e-01 0.0000000000000000e+00  1.2327170110978201e+00 7.0921568872324436e-01 0.0000000000000000e+00  1.1452540319721038e+00 7.4399150119094937e-01 0.0000000000000000e+00  1.0315925324536279e+00 6.7367558903353975e-01 0.0000000000000000e+00  8.6176710646699706e-01 5.1736725301094633e-01 0.0000000000000000e+00  6.2235744255429382e-01 3.3055574862320408e-01 0.0000000000000000e+00  3.3356184560239005e-01 1.7320074754126005e-01 0.0000000000000000e+00  4.0087734832867966e-01 -2.2661063254999861e-01 0.0000000000000000e+00  7.2893927948014881e-01 -4.3504994610389369e-01 0.0000000000000000e+00  9.7127745346319883e-01 -6.9364540085271087e-01 0.0000000000000000e+00  1.0793036735415413e+00 -8.4248223676222955e-01 0.0000000000000000e+00  1.1523452770468561e+00 -7.5665350431077871e-01 0.0000000000000000e+00  1.2733684413331621e+00 -5.2835280492912162e-01 0.0000000000000000e+00  1.4273311446977248e+00 -2.6924308471308922e-01 0.0000000000000000e+00  1.5731009688400581e+00 -2.5181774251433645e-02 0.0000000000000000e+00  1.6881700646842352e+00 2.1206003509129137e-01 0.0000000000000000e+00  0.0000000000000000e+00 0.0000000000000000e+00 0.0000000000000000e+00  0.0000000000000000e+00 0.0000000000000000e+00 0.0000000000000000e+00  0.0000000000000000e+00 0.0000000000000000e+00 0.0000000000000000e+00  0.0000000000000000e+00 0.0000000000000000e+00 0.0000000000000000e+00  0.0000000000000000e+00 0.0000000000000000e+00 0.0000000000000000e+00  0.0000000000000000e+00 0.0000000000000000e+00 0.0000000000000000e+00  0.0000000000000000e+00 0.0000000000000000e+00 0.0000000000000000e+00  0.0000000000000000e+00 0.0000000000000000e+00 0.0000000000000000e+00  0.0000000000000000e+00 0.0000000000000000e+00 0.0000000000000000e+00  2.9402566471632641e+00 -4.2616003008057507e-01 0.0000000000000000e+00  2.2943884551161973e+00 4.9449144285086087e-03 0.0000000000000000e+00  2.2435754971082761e-01 -7.8151791050698291e-02 0.0000000000000000e+00  2.4910855792730097e-01 5.6384065038750188e-02 0.0000000000000000e+00  1.6501284532396165e+00 4.7545151128535318e-01 0.0000000000000000e+00  1.2964418352000655e+00 6.5097343752270120e-01 0.0000000000000000e+00  2.9557029757242668e+00 1.3356956075162493e-01 0.0000000000000000e+00  1.3798227411522783e+00 -6.6178116511668028e-01 0.0000000000000000e+00  -1.7818545783219029e-02 -6.7492499905139397e-03 0.0000000000000000e+00  7.1476665056583766e-01 4.1745023062535536e-01 0.0000000000000000e+00  9.6719046299747902e-01 -7.2943240819655031e-01 0.0000000000000000e+00  1.4635193120303841e-01 5.7232060306091341e-02 0.0000000000000000e+00  2.0844775057394585e-01 -1.0151167668741355e-01 0.0000000000000000e+00  1.8783820325055027e+00 3.1884924763326500e-01 0.0000000000000000e+00  1.6418457082159257e+00 2.7639901053659972e-03 0.0000000000000000e+00  2.5534481807528803e-01 3.9721572212024542e-01 0.0000000000000000e+00  2.3856237808910103e+00 -7.2050257281040841e-01 0.0000000000000000e+00  2.3962856428097910e+00 -9.6189439219669182e-01 0.0000000000000000e+00  2.7439253172049054e+00 -1.0794205736752800e+00 0.0000000000000000e+00  2.7967767638437362e+00 -4.3555968703696052e-01 0.0000000000000000e+00  2.3538820591120693e-01 5.9763318648147867e-01 0.0000000000000000e+00  1.4565831632443520e+00 4.9083205527306079e-01 0.0000000000000000e+00  2.7453035218952003e-02 -2.4786280994027316e-02 0.0000000000000000e+00  2.0295742256511708e+00 1.1147648528362958e-01 0.0000000000000000e+00  1.6961447798669369e+00 -3.3554698563017360e-01 0.0000000000000000e+00  2.7339309824172044e+00 1.5869334146445149e-01 0.0000000000000000e+00  2.5321139098788974e+00 -8.4282896244615282e-02 0.0000000000000000e+00  2.1254990679100034e+00 1.2638663593599081e-01 0.0000000000000000e+00  3.8048236244244416e-01 1.5414252280907961e-01 0.0000000000000000e+00  5.6712251321134255e-01 -3.3497620737595474e-01 0.0000000000000000e+00  1.0707116657355786e+00 6.7456647186669927e-01 0.0000000000000000e+00  1.6644884175893775e+00 2.3465861542486646e-01 0.0000000000000000e+00  7.0051809112623584e-02 -6.4420572918630209e-02 0.0000000000000000e+00  1.4242514212090045e+00 6.1851405909503299e-01 0.0000000000000000e+00  1.6598133167804041e+00 5.4352824195644212e-01 0.0000000000000000e+00  3.2681783457097363e-01 1.5305868123504376e-01 0.0000000000000000e+00  4.3737104721963777e-01 -2.7020625374555685e-01 0.0000000000000000e+00  7.9220831154575122e-02 3.0049977252695160e-03 0.0000000000000000e+00  9.4125107152048609e-02 -1.1518969424505711e-02 0.0000000000000000e+00  1.1548796547395257e+00 -7.9144770384251240e-01 0.0000000000000000e+00  2.9577506048402471e+00 4.6837081243373803e-02 0.0000000000000000e+00  1.4241437938572326e+00 5.6835115728948482e-01 0.0000000000000000e+00  2.7911533108820579e+00 1.5240503866246885e-01 0.0000000000000000e+00  2.9008556880783809e+00 1.4663980959876646e-01 0.0000000000000000e+00  1.4455382494510016e+00 -6.6124590679945794e-01 0.0000000000000000e+00  -8.6689084955127831e-03 -5.4032677936570364e-04 0.0000000000000000e+00  7.4163840992234986e-01 4.5331326364391067e-01 0.0000000000000000e+00  1.0159167807164313e+00 -7.8799492476694710e-01 0.0000000000000000e+00  1.4717212429225771e-01 3.3415134775904692e-01 0.0000000000000000e+00  2.7555512829483386e+00 -5.0306472879906794e-01 0.0000000000000000e+00  2.6329917205486492e-01 5.0757731649440330e-01 0.0000000000000000e+00  2.5060012671769849e+00 -5.7444856394163424e-01 0.0000000000000000e+00  2.2363293258667842e+00 -5.8070955965189253e-01 0.0000000000000000e+00  2.5606663547783417e+00 -1.0965948896499107e+00 0.0000000000000000e+00  2.4040486845012121e+00 -8.3210251805947111e-01 0.0000000000000000e+00  2.8386312166221930e+00 -1.0323372737787218e+00 0.0000000000000000e+00  2.8772460366057109e+00 -4.0512992813956022e-01 0.0000000000000000e+00  2.2912712172791170e+00 -9.2204475936464769e-01 0.0000000000000000e+00  2.8386567718243523e+00 -5.0136075603165320e-01 0.0000000000000000e+00  2.3513801019982137e+00 -1.0774336921613370e+00 0.0000000000000000e+00  2.7850116009722496e+00 -1.1693774486486761e+00 0.0000000000000000e+00  2.7099735109719143e+00 -9.8424366479709569e-01 0.0000000000000000e+00  1.9189172692136056e-01 5.7397652611892869e-01 0.0000000000000000e+00  2.5671261583237914e-01 6.3660332265917607e-01 0.0000000000000000e+00  2.0516845653431784e-01 6.2815829289346881e-01 0.0000000000000000e+00  1.4359791292953519e+00 4.9987894887155904e-01 0.0000000000000000e+00  1.4645416264210034e+00 4.8728364465616830e-01 0.0000000000000000e+00  1.4586414034078574e+00 4.9144215042451239e-01 0.0000000000000000e+00  2.0202349647441076e+00 -2.5510670088695614e-01 0.0000000000000000e+00  2.4363252320803928e+00 2.0928777635914350e-01 0.0000000000000000e+00  4.4022708743912960e-02 1.5385866725742143e-02 0.0000000000000000e+00  2.7213349394410598e+00 1.0894204908524887e-02 0.0000000000000000e+00  2.2343700611687256e-01 -8.7124223559165437e-02 0.0000000000000000e+00  1.7488467147833204e+00 -8.0510686803700757e-02 0.0000000000000000e+00  2.9580483520348690e+00 1.4986226768785091e-01 0.0000000000000000e+00  2.6970746815551410e+00 7.9002020491221445e-02 0.0000000000000000e+00  5.9800031042724544e-01 3.2340424570300591e-01 0.0000000000000000e+00  -1.5948998182294906e-03 -1.8728382702206961e-02 0.0000000000000000e+00  4.9343639179295840e-01 2.2775647859635240e-01 0.0000000000000000e+00  5.2319314381776519e-02 -2.9987018371395165e-02 0.0000000000000000e+00  1.9072128498092760e+00 6.3961446724857346e-02 0.0000000000000000e+00  1.4426732903548476e+00 -5.2595339135277031e-01 0.0000000000000000e+00  1.5623523163962036e-01 3.1774595375427435e-02 0.0000000000000000e+00  1.1289862196382114e+00 6.2497489400975992e-01 0.0000000000000000e+00  2.0591188678887700e+00 2.9476728391336737e-01 0.0000000000000000e+00  1.1730094433892060e+00 7.1213750875381110e-01 0.0000000000000000e+00  7.7130235363684518e-01 -5.1101891785897124e-01 0.0000000000000000e+00  1.9838596034886835e+00 3.2502934517714499e-01 0.0000000000000000e+00  1.4625747051426050e+00 4.8181698063379330e-01 0.0000000000000000e+00  8.9872406753174050e-01 5.7998972504579105e-01 0.0000000000000000e+00  -3.8875423283449471e-02 -4.1545483869780218e-03 0.0000000000000000e+00  1.8281788937063799e+00 1.3806136516654241e-01 0.0000000000000000e+00  2.5474866882862961e+00 -2.8638937981551543e-01 0.0000000000000000e+00  7.4501882488857599e-02 7.5244679318863916e-02 0.0000000000000000e+00  8.3063979446472314e-01 -5.9807521246645345e-01 0.0000000000000000e+00  1.1586601253312403e+00 -7.7452047502196786e-01 0.0000000000000000e+00  2.7677646303389580e+00 -6.3748232228815441e-02 0.0000000000000000e+00  2.8400603310355155e-01 1.1947870849919791e-01 0.0000000000000000e+00  1.3698971255605980e-01 -2.3433040290105966e-01 0.0000000000000000e+00  2.8987394906944135e+00 2.0008355735736086e-01 0.0000000000000000e+00  1.4832890829882790e+00 5.9463495819870094e-01 0.0000000000000000e+00  -7.0228183000301831e-03 -8.1972962485866108e-02 0.0000000000000000e+00  1.9783230755989872e-01 -1.0405589104504075e-01 0.0000000000000000e+00  1.5514506637924577e+00 5.6141083725323704e-01 0.0000000000000000e+00  1.6187508752639479e+00 5.3828829865203753e-01 0.0000000000000000e+00  1.8088446479892726e+00 5.0303518435842931e-01 0.0000000000000000e+00  1.1426873568822866e+00 -8.0373866326410259e-01 0.0000000000000000e+00  2.4552424576400811e+00 1.7568324402368399e-01 0.0000000000000000e+00  1.0354815253362835e+00 -7.8953543437139750e-01 0.0000000000000000e+00  3.7572550859376136e-01 2.7916257068828715e-01 0.0000000000000000e+00  4.3887999575141901e-01 -3.9893718771513614e-01 0.0000000000000000e+00  1.4614879515584465e+00 5.2054413089094209e-01 0.0000000000000000e+00  1.5523406941341227e+00 -6.5659783380073578e-01 0.0000000000000000e+00  8.5596008049753292e-01 5.5232264634219563e-01 0.0000000000000000e+00  2.8805618374827722e+00 -2.9099632339487896e-01 0.0000000000000000e+00  1.81164522858329