<?xml version="1.0"?>
<VTKFile type="UnstructuredGrid"  version="0.1"  >
<UnstructuredGrid>
<Piece  NumberOfPoints="2868" NumberOfCells="5400">
<Points>
<DataArray  type="Float64"  NumberOfComponents="3"  format="ascii">0.534923 0.326073 0  0.510642 0.314196 0  0.466125 0.293082 0  0.436448 0.281205 0  0.409468 0.275927 0  0.368998 0.270648 0  0.35281 0.275927 0  0.381139 0.302319 0  0.405421 0.326073 0  0.410817 0.33531 0  0.408119 0.349826 0  0.400025 0.357744 0  0.375743 0.368301 0  0.329878 0.392055 0  0.297502 0.432963 0  0.282663 0.476511 0  0.285361 0.524018 0  0.298851 0.572845 0  0.317737 0.6045160000000001 0  0.337972 0.6361869999999999 0  0.360904 0.674457 0  0.368998 0.69953 0  0.359555 0.7219640000000001 0  0.360904 0.757594 0  0.370347 0.766831 0  0.381139 0.762872 0  0.390582 0.741758 0  0.404072 0.720644 0  0.424307 0.707448 0  0.447239 0.702169 0  0.480964 0.704808 0  0.479615 0.6889729999999999 0  0.468823 0.675776 0  0.447239 0.6691780000000001 0  0.428354 0.6691780000000001 0  0.410817 0.6639 0  0.404072 0.653343 0  0.395978 0.628269 0  0.387884 0.59132 0  0.389233 0.576804 0  0.397327 0.557009 0  0.410817 0.547772 0  0.424307 0.546452 0  0.437797 0.55305 0  0.44589 0.5662469999999999 0  0.441843 0.582082 0  0.439145 0.5979179999999999 0  0.449937 0.609795 0  0.468823 0.603196 0  0.479615 0.59 0  0.489058 0.570205 0  0.494454 0.546452 0  0.505246 0.522699 0  0.522783 0.509502 0  0.55246 0.494986 0  0.586185 0.484429 0  0.615863 0.48047 0  0.64554 0.473872 0  0.6671240000000001 0.461995 0  0.683312 0.451438 0  0.696802 0.435603 0  0.703547 0.417128 0  0.7116400000000001 0.393374 0  0.7183850000000001 0.37226 0  0.7251300000000001 0.364342 0  0.739969 0.353785 0  0.7453650000000001 0.344548 0  0.7453650000000001 0.327393 0  0.737271 0.318155 0  0.7183850000000001 0.316835 0  0.7008490000000001 0.319475 0  0.677916 0.318155 0  0.650936 0.316835 0  0.610467 0.318155 0  0.57944 0.324753 0  0.559205 0.328712 0  0.5389699999999999 0.326073 0  1 1 0  1 0 0  0 0 0  0 1 0  0.532238 0.32476 0  0.528748 0.323052 0  0.52421 0.320833 0  0.518311 0.317947 0  0.503447 0.310783 0  0.494093 0.306347 0  0.481933 0.30058 0  0.452151 0.28749 0  0.392327 0.273691 0  0.379141 0.271971 0  0.360474 0.283066 0  0.369797 0.291752 0  0.391424 0.31238 0  0.399335 0.32012 0  0.40958 0.341964 0  0.393939 0.36039 0  0.386028 0.36383 0  0.364248 0.374254 0  0.349304 0.381994 0  0.315801 0.409841 0  0.292986 0.551616 0  0.350934 0.657818 0  0.360127 0.737055 0  0.360566 0.748664 0  0.385245 0.753692 0  0.396447 0.732578 0  0.466301 0.703661 0  0.459439 0.672908 0  0.418442 0.666195 0  0.400553 0.642441 0  0.39255 0.612619 0  0.389913 0.60058 0  0.392752 0.568197 0  0.444131 0.573132 0  0.458149 0.606926 0  0.5005540000000001 0.533026 0  0.571522 0.489019 0  0.632637 0.476741 0  0.689177 0.444553 0  0.708121 0.403702 0  0.715453 0.38144 0  0.732406 0.359166 0  0.7453650000000001 0.337089 0  0.72906 0.317581 0  0.629879 0.317522 0  0.59293 0.321884 0  0.568003 0.326991 0  0.55202 0.327775 0  0.546493 0.327054 0  0.542241 0.326499 0  1 0.9 0  1 0.8 0  1 0.7 0  1 0.6 0  1 0.5 0  1 0.4 0  1 0.3 0  1 0.2 0  1 0.1 0  0.9 0 0  0.8 0 0  0.7 0 0  0.6 0 0  0.5 0 0  0.4 0 0  0.3 0 0  0.2 0 0  0.1 0 0  0.1 1 0  0.2 1 0  0.3 1 0  0.4 1 0  0.5 1 0  0.6 1 0  0.7 1 0  0.8 1 0  0.9 1 0  0 0.1 0  0 0.2 0  0 0.3 0  0 0.4 0  0 0.5 0  0 0.6 0  0 0.7 0  0 0.8 0  0 0.9 0  0.535686 0.5031910000000001 0  0.753987 0.733359 0  0.167145 0.741436 0  0.173378 0.257204 0  0.733497 0.159862 0  0.554096 0.15788 0  0.849187 0.479053 0  0.488793 0.838452 0  0.138507 0.5592 0  0.30686 0.154944 0  0.348904 0.890523 0  0.058006 0.065099 0  0.06984899999999999 0.937917 0  0.93633 0.939704 0  0.934625 0.053613 0  0.343397 0.333452 0  0.473272 0.639943 0  0.433266 0.638072 0  0.415174 0.58269 0  0.533435 0.545042 0  0.390848 0.340652 0  0.53655 0.320242 0  0.127966 0.393775 0  0.83861 0.850455 0  0.635242 0.8551299999999999 0  0.852158 0.633441 0  0.653427 0.626848 0  0.861226 0.24292 0  0.166128 0.12976 0  0.216875 0.8698709999999999 0  0.458305 0.11179 0  0.84446 0.101633 0  0.202024 0.642528 0  0.644825 0.115855 0  0.671342 0.218358 0  0.251354 0.286186 0  0.262388 0.75153 0  0.063044 0.751571 0  0.068189 0.242962 0  0.435781 0.9053949999999999 0  0.934144 0.451133 0  0.568393 0.237622 0  0.814984 0.395506 0  0.752951 0.517227 0  0.456254 0.780699 0  0.073352 0.531116 0  0.337731 0.206071 0  0.363213 0.960371 0  0.330742 0.363592 0  0.516613 0.55705 0  0.369057 0.332992 0  0.500926 0.617309 0  0.498004 0.665534 0  0.412142 0.61178 0  0.454233 0.6366039999999999 0  0.422782 0.567496 0  0.541193 0.5214800000000001 0  0.439761 0.65557 0  0.5163 0.533672 0  0.414775 0.64562 0  0.40073 0.576135 0  0.430362 0.5880339999999999 0  0.385432 0.351492 0  0.400298 0.335397 0  0.398325 0.348194 0  0.528702 0.314885 0  0.540814 0.322334 0  0.534477 0.322953 0  0.619095 0.743583 0  0.885162 0.737972 0  0.08076 0.668849 0  0.90734 0.36634 0  0.09468699999999999 0.868937 0  0.759838 0.912152 0  0.901518 0.540898 0  0.747285 0.607479 0  0.229182 0.071641 0  0.06915399999999999 0.450091 0  0.244775 0.203309 0  0.076534 0.331755 0  0.897847 0.167826 0  0.578909 0.911415 0  0.07713299999999999 0.146341 0  0.477215 0.203448 0  0.922631 0.869341 0  0.517415 0.074785 0  0.297026 0.827793 0  0.7832710000000001 0.246505 0  0.74519 0.061079 0  0.36033 0.069068 0  0.210313 0.475228 0  0.859426 0.928758 0  0.5745479999999999 0.609182 0  0.243069 0.383398 0  0.283099 0.934598 0  0.417416 0.843141 0  0.643942 0.553164 0  0.112687 0.079336 0  0.281357 0.658386 0  0.765043 0.436177 0  0.611361 0.198486 0  0.234496 0.58911 0  0.206479 0.702638 0  0.679608 0.155818 0  0.62682 0.259978 0  0.690538 0.264164 0  0.448938 0.956308 0  0.808154 0.328403 0  0.379583 0.91913 0  0.308083 0.297769 0  0.312358 0.730249 0  0.563101 0.278576 0  0.435597 0.746198 0  0.385475 0.225229 0  0.572248 0.518034 0  0.357864 0.35422 0  0.497647 0.641694 0  0.458101 0.655768 0  0.360474 0.310727 0  0.467038 0.620139 0  0.47798 0.659909 0  0.41102 0.628072 0  0.48324 0.609015 0  0.427544 0.617941 0  0.388633 0.328253 0  0.405336 0.599404 0  0.408351 0.565178 0  0.42395 0.600985 0  0.431562 0.576523 0  0.424905 0.6551979999999999 0  0.398064 0.58782 0  0.427739 0.557934 0  0.5192909999999999 0.303443 0  0.53142 0.320293 0  0.5449000000000001 0.323642 0  0.537166 0.323513 0  0.153974 0.920841 0  0.9181859999999999 0.67343 0  0.759946 0.820588 0  0.5375259999999999 0.783091 0  0.816532 0.545843 0  0.813991 0.178083 0  0.836774 0.702023 0  0.149815 0.318856 0  0.662287 0.923338 0  0.680146 0.791192 0  0.708961 0.663172 0  0.9372779999999999 0.287318 0  0.574622 0.6881660000000001 0  0.5894740000000001 0.076262 0  0.502822 0.926683 0  0.222269 0.811068 0  0.380457 0.164786 0  0.15321 0.684154 0  0.458063 0.051413 0  0.161702 0.056026 0  0.199351 0.198818 0  0.298946 0.09553200000000001 0  0.902465 0.795949 0  0.121139 0.791477 0  0.906269 0.112287 0  0.056109 0.822332 0  0.512172 0.13237 0  0.940964 0.741805 0  0.888887 0.408777 0  0.354543 0.825964 0  0.808736 0.068638 0  0.068507 0.394071 0  0.719105 0.563843 0  0.247287 0.149664 0  0.293062 0.237128 0  0.240524 0.434997 0  0.141255 0.623289 0  0.945202 0.160621 0  0.502914 0.247629 0  0.144669 0.480811 0  0.665025 0.060817 0  0.728047 0.224344 0  0.861995 0.313312 0  0.200068 0.534235 0  0.253262 0.965623 0  0.893804 0.49307 0  0.604391 0.572456 0  0.947088 0.345347 0  0.439372 0.227307 0  0.629847 0.159823 0  0.273405 0.880181 0  0.302744 0.776823 0  0.781502 0.295365 0  0.275342 0.349602 0  0.7283849999999999 0.472798 0  0.229136 0.246478 0  0.807794 0.480346 0  0.709476 0.112786 0  0.275506 0.694991 0  0.771674 0.394419 0  0.449715 0.861802 0  0.419159 0.799696 0  0.674851 0.503139 0  0.280443 0.61016 0  0.572443 0.192538 0  0.393113 0.87525 0  0.405555 0.948428 0  0.330942 0.934103 0  0.540509 0.597101 0  0.312763 0.6689310000000001 0  0.254368 0.540179 0  0.595265 0.25915 0  0.606679 0.234099 0  0.657131 0.279138 0  0.722458 0.279478 0  0.333 0.308056 0  0.351529 0.246142 0  0.455714 0.7257940000000001 0  0.585239 0.295143 0  0.340062 0.72492 0  0.545593 0.293773 0  0.555449 0.545426 0  0.414311 0.737314 0  0.590854 0.502323 0  0.350507 0.368444 0  0.484423 0.625665 0  0.483899 0.674542 0  0.378137 0.317274 0  0.446416 0.646404 0  0.373532 0.347654 0  0.446876 0.619769 0  0.466106 0.666068 0  0.437545 0.609254 0  0.434988 0.565726 0  0.41462 0.656829 0  0.418803 0.556961 0  0.398425 0.327446 0  0.517803 0.310421 0  0.549516 0.322918 0  0.57701 0.842889 0  0.8291269999999999 0.773906 0  0.643235 0.684732 0  0.134281 0.207734 0  0.865997 0.055966 0  0.680959 0.723345 0  0.165229 0.8415550000000001 0  0.54558 0.959672 0  0.783726 0.656439 0  0.913315 0.595533 0  0.699439 0.860667 0  0.785839 0.125076 0  0.551673 0.037713 0  0.9200970000000001 0.223214 0  0.206406 0.299726 0  0.087064 0.596401 0  0.935644 0.394252 0  0.964557 0.252582 0  0.230124 0.928346 0  0.120579 0.271764 0  0.8572149999999999 0.524082 0  0.7670979999999999 0.5551469999999999 0  0.936094 0.507131 0  0.804064 0.59585 0  0.700565 0.608273 0  0.429773 0.174231 0  0.117746 0.727333 0  0.5389620000000001 0.730231 0  0.862761 0.359173 0  0.821444 0.284046 0  0.193552 0.35818 0  0.234923 0.505555 0  0.193209 0.421217 0  0.220144 0.755896 0  0.594015 0.131642 0  0.283813 0.195855 0  0.517519 0.213961 0  0.553509 0.639116 0  0.280391 0.378018 0  0.852183 0.436817 0  0.746983 0.197173 0  0.821806 0.221318 0  0.449853 0.828453 0  0.883758 0.453926 0  0.183484 0.589542 0  0.348384 0.129314 0  0.255254 0.838525 0  0.504849 0.798516 0  0.320344 0.863432 0  0.611669 0.525425 0  0.265864 0.804962 0  0.72056 0.521442 0  0.613372 0.6101220000000001 0  0.481262 0.881068 0  0.655778 0.191988 0  0.701921 0.196918 0  0.5658260000000001 0.5731810000000001 0  0.46914 0.240927 0  0.343219 0.173284 0  0.888786 0.278502 0  0.244113 0.6750930000000001 0  0.739546 0.417914 0  0.784023 0.355942 0  0.326805 0.265549 0  0.248616 0.6
[...]
<PointData  Vectors="f_21"> 
<DataArray  type="Float64"  Name="f_21"  NumberOfComponents="3" format="ascii">1.2817195980820268e+00 2.2454545311263613e-01 0.0000000000000000e+00  1.2383665600491547e+00 2.5300724224726534e-01 0.0000000000000000e+00  1.0975606223248984e+00 3.0366918455496378e-01 0.0000000000000000e+00  9.6678465286361148e-01 3.2615451989492789e-01 0.0000000000000000e+00  8.3978589995718622e-01 3.2968898294380161e-01 0.0000000000000000e+00  6.1752714359711347e-01 3.2258701529162653e-01 0.0000000000000000e+00  4.8366038844324361e-01 2.8757199690395507e-01 0.0000000000000000e+00  3.3737734241368517e-01 3.6220052564606114e-01 0.0000000000000000e+00  2.6758684451648485e-01 4.2277592880456599e-01 0.0000000000000000e+00  2.4099493818038242e-01 4.3825829145791051e-01 0.0000000000000000e+00  1.9825112470407910e-01 4.3047987177752162e-01 0.0000000000000000e+00  1.7446687804649458e-01 4.0656695831548378e-01 0.0000000000000000e+00  1.4208828094403056e-01 3.3275050857257610e-01 0.0000000000000000e+00  8.7285853198981009e-02 1.8364843143264670e-01 0.0000000000000000e+00  3.7309661519349932e-02 6.7854590987188018e-02 0.0000000000000000e+00  1.8723263372878423e-02 -1.7687356514680723e-02 0.0000000000000000e+00  2.1694001306367047e-02 -9.2659459758097154e-02 0.0000000000000000e+00  3.7381173830082180e-02 -1.7555426329115947e-01 0.0000000000000000e+00  6.5381606620404473e-02 -2.5159069307708676e-01 0.0000000000000000e+00  1.1232687232742966e-01 -3.3325353623619230e-01 0.0000000000000000e+00  2.0138316812933629e-01 -4.3400462931367750e-01 0.0000000000000000e+00  2.7769135107660670e-01 -4.7425236882416183e-01 0.0000000000000000e+00  3.5386394685401334e-01 -4.6411889714892496e-01 0.0000000000000000e+00  5.9025810437876924e-01 -5.0404112973865478e-01 0.0000000000000000e+00  7.7928116792588586e-01 -5.5091888040751280e-01 0.0000000000000000e+00  9.3510267295437910e-01 -5.5343754376532028e-01 0.0000000000000000e+00  1.1672271575031301e+00 -5.3974722683122012e-01 0.0000000000000000e+00  1.2838740340310664e+00 -4.8670573907018405e-01 0.0000000000000000e+00  1.3350378338558875e+00 -4.2685188250896366e-01 0.0000000000000000e+00  1.3591459227531222e+00 -3.8194797083315235e-01 0.0000000000000000e+00  1.4311267482313601e+00 -3.8192354337596796e-01 0.0000000000000000e+00  1.5481500559276504e+00 -4.1552790935961087e-01 0.0000000000000000e+00  1.6068707420814683e+00 -4.6148733071879683e-01 0.0000000000000000e+00  1.6281026619963797e+00 -5.4600072397582877e-01 0.0000000000000000e+00  1.6256408718691271e+00 -6.2238569388988962e-01 0.0000000000000000e+00  1.6461623461369717e+00 -6.9268354063231286e-01 0.0000000000000000e+00  1.6877277791103020e+00 -7.1946615457841023e-01 0.0000000000000000e+00  1.7858781670209851e+00 -7.5195657754286382e-01 0.0000000000000000e+00  1.9284839456733445e+00 -7.8332307212974617e-01 0.0000000000000000e+00  1.9835380231876862e+00 -7.7808278613658621e-01 0.0000000000000000e+00  2.0583919167505971e+00 -7.4733376138925145e-01 0.0000000000000000e+00  2.0934046195453582e+00 -6.9604875035429337e-01 0.0000000000000000e+00  2.0984306688961278e+00 -6.4451382599466933e-01 0.0000000000000000e+00  2.0731359713372997e+00 -5.9277545821378386e-01 0.0000000000000000e+00  2.0227180841143562e+00 -5.6178347479619883e-01 0.0000000000000000e+00  1.9629754590030246e+00 -5.7637176796892353e-01 0.0000000000000000e+00  1.9037303840559063e+00 -5.8317782936506546e-01 0.0000000000000000e+00  1.8557397449920592e+00 -5.3434832859863102e-01 0.0000000000000000e+00  1.8728826680407824e+00 -4.5299388458954165e-01 0.0000000000000000e+00  1.9073276918118192e+00 -4.0800232218983051e-01 0.0000000000000000e+00  1.9546157781010363e+00 -3.7018006380272922e-01 0.0000000000000000e+00  2.0081446792178097e+00 -3.4899386640382185e-01 0.0000000000000000e+00  2.0603148292969480e+00 -3.1972146097419668e-01 0.0000000000000000e+00  2.0878736881995099e+00 -2.7686813183674530e-01 0.0000000000000000e+00  2.1131010643968291e+00 -2.0617673712847348e-01 0.0000000000000000e+00  2.1243050153200298e+00 -1.3123408413810339e-01 0.0000000000000000e+00  2.1187799401530509e+00 -6.9934820009348614e-02 0.0000000000000000e+00  2.1111445775452546e+00 -1.0546675409475135e-02 0.0000000000000000e+00  2.1073724273171570e+00 3.0604648803537329e-02 0.0000000000000000e+00  2.0995303700977872e+00 6.5305384182490753e-02 0.0000000000000000e+00  2.0857875213562553e+00 9.8918945003210496e-02 0.0000000000000000e+00  2.0638650077143343e+00 1.2409731506232152e-01 0.0000000000000000e+00  2.0315868888016126e+00 1.4671241456351553e-01 0.0000000000000000e+00  1.9984658557043158e+00 1.5673329438935979e-01 0.0000000000000000e+00  1.9869168419021954e+00 1.5534908570109326e-01 0.0000000000000000e+00  1.9603345796628631e+00 1.6130842621204164e-01 0.0000000000000000e+00  1.9220638958133711e+00 1.6938700069074972e-01 0.0000000000000000e+00  1.8214238914817291e+00 1.8168850841478512e-01 0.0000000000000000e+00  1.7325320104385127e+00 1.9068387749402696e-01 0.0000000000000000e+00  1.6405932170066322e+00 1.8490476915673554e-01 0.0000000000000000e+00  1.5896817636344782e+00 1.8131215737105180e-01 0.0000000000000000e+00  1.5364827341378335e+00 1.8805085937468263e-01 0.0000000000000000e+00  1.4690310455068389e+00 1.9751248814011715e-01 0.0000000000000000e+00  1.3736181676427490e+00 2.0576514995254105e-01 0.0000000000000000e+00  1.3178171222680286e+00 2.0499397505077471e-01 0.0000000000000000e+00  1.2996485223450385e+00 2.0843430150935166e-01 0.0000000000000000e+00  1.2837208496542079e+00 2.2113040359952690e-01 0.0000000000000000e+00  1.6348680935291100e+00 2.0374838633941339e-01 0.0000000000000000e+00  1.5416981018586013e+00 -5.9893885827689682e-02 0.0000000000000000e+00  0.0000000000000000e+00 0.0000000000000000e+00 0.0000000000000000e+00  0.0000000000000000e+00 0.0000000000000000e+00 0.0000000000000000e+00  1.2788980691906615e+00 2.2754745493333456e-01 0.0000000000000000e+00  1.2740102922925851e+00 2.3155461498059993e-01 0.0000000000000000e+00  1.2664701558313227e+00 2.3682267428348119e-01 0.0000000000000000e+00  1.2552755035246985e+00 2.4386096389496251e-01 0.0000000000000000e+00  1.2207093559377427e+00 2.6144847676214750e-01 0.0000000000000000e+00  1.1949508519664553e+00 2.7253714037866067e-01 0.0000000000000000e+00  1.1570535372116355e+00 2.8645075732818703e-01 0.0000000000000000e+00  1.0411036978291139e+00 3.1613080577188135e-01 0.0000000000000000e+00  7.5853397795552802e-01 3.2682304180198490e-01 0.0000000000000000e+00  6.8941703552569278e-01 3.2499228255874257e-01 0.0000000000000000e+00  4.2057761899526669e-01 3.1738186967315207e-01 0.0000000000000000e+00  3.7588036186041968e-01 3.3797720869809333e-01 0.0000000000000000e+00  3.0656007295273835e-01 3.8573020157936838e-01 0.0000000000000000e+00  2.8443437574977626e-01 4.0607550193931757e-01 0.0000000000000000e+00  2.2155774766664543e-01 4.3471833322704290e-01 0.0000000000000000e+00  1.6635078751656154e-01 3.8839914983591878e-01 0.0000000000000000e+00  1.5567016869408071e-01 3.6454343910794251e-01 0.0000000000000000e+00  1.2526033865354688e-01 2.9607941394101789e-01 0.0000000000000000e+00  1.0630862292501689e-01 2.4788860063197379e-01 0.0000000000000000e+00  6.0949789244701326e-02 1.3301613472381349e-01 0.0000000000000000e+00  2.8861014570894405e-02 -1.3719152638589377e-01 0.0000000000000000e+00  1.5750759162694666e-01 -3.9014895312603393e-01 0.0000000000000000e+00  4.2613593907701813e-01 -4.8710958237958663e-01 0.0000000000000000e+00  5.0201652594561808e-01 -5.0291714445800106e-01 0.0000000000000000e+00  1.0682809374135118e+00 -5.5797560457183459e-01 0.0000000000000000e+00  1.2253370490738980e+00 -5.1550983516121895e-01 0.0000000000000000e+00  1.3813080479021678e+00 -3.6626786730033645e-01 0.0000000000000000e+00  1.6163579356492030e+00 -4.9775860911066272e-01 0.0000000000000000e+00  1.6371333835698831e+00 -6.6224383699538181e-01 0.0000000000000000e+00  1.7304704723369446e+00 -7.3362066537760728e-01 0.0000000000000000e+00  1.8468842666738410e+00 -7.6559448405134989e-01 0.0000000000000000e+00  1.8931921021292217e+00 -7.7567700638156645e-01 0.0000000000000000e+00  2.0160675380888997e+00 -7.6469249502493863e-01 0.0000000000000000e+00  1.9966359644432541e+00 -5.6834113965485933e-01 0.0000000000000000e+00  1.8643500599707610e+00 -4.9848256213362813e-01 0.0000000000000000e+00  2.0375487557691412e+00 -3.3201258988174681e-01 0.0000000000000000e+00  2.1199695495729367e+00 -1.6306345171943729e-01 0.0000000000000000e+00  2.1155611299109336e+00 -3.6495426194227305e-02 0.0000000000000000e+00  2.0943229923434274e+00 8.0610954082294184e-02 0.0000000000000000e+00  2.0464488754166443e+00 1.3807234343572009e-01 0.0000000000000000e+00  2.0127754608073674e+00 1.5419243834369459e-01 0.0000000000000000e+00  1.9759804141041419e+00 1.5644985816419152e-01 0.0000000000000000e+00  1.8837332410334569e+00 1.8221956413298893e-01 0.0000000000000000e+00  1.6865855330901112e+00 1.8636745791780182e-01 0.0000000000000000e+00  1.4179858219882413e+00 2.0173052826811461e-01 0.0000000000000000e+00  1.3376176941501701e+00 2.0517380777325456e-01 0.0000000000000000e+00  1.3057116603479975e+00 2.0610417351162910e-01 0.0000000000000000e+00  1.2948081515854011e+00 2.1207952640594968e-01 0.0000000000000000e+00  1.2901720607657916e+00 2.1565843398435713e-01 0.0000000000000000e+00  1.2865132513339015e+00 2.1864405640643031e-01 0.0000000000000000e+00  1.7723947333334107e+00 2.3143804349358629e-01 0.0000000000000000e+00  1.9206421449962658e+00 2.3982625002687930e-01 0.0000000000000000e+00  2.0512403262616665e+00 2.1757817888302652e-01 0.0000000000000000e+00  2.1439607831100127e+00 1.6941769453336372e-01 0.0000000000000000e+00  2.1748860387018789e+00 8.7236362246211757e-02 0.0000000000000000e+00  2.1241461657576455e+00 -7.7903377199048263e-03 0.0000000000000000e+00  1.9940171075462891e+00 -7.9928870096999352e-02 0.0000000000000000e+00  1.8339132154314224e+00 -9.9942271641162636e-02 0.0000000000000000e+00  1.6832144453500106e+00 -8.6227505847725108e-02 0.0000000000000000e+00  1.4465989197789344e+00 8.5260225772709919e-02 0.0000000000000000e+00  1.3439637426956066e+00 2.2097058643203804e-01 0.0000000000000000e+00  1.2249365552671836e+00 3.3477234993242699e-01 0.0000000000000000e+00  1.0883281416665662e+00 4.2401326682981988e-01 0.0000000000000000e+00  9.4471979567194231e-01 4.7916321225469788e-01 0.0000000000000000e+00  8.0607729129360273e-01 4.8179425854800834e-01 0.0000000000000000e+00  6.5282272936886965e-01 4.1352848051087326e-01 0.0000000000000000e+00  4.7091813331525989e-01 2.8997771014902046e-01 0.0000000000000000e+00  2.5989385802223935e-01 1.5768805358580554e-01 0.0000000000000000e+00  3.1573280180745583e-01 -2.2776436726433025e-01 0.0000000000000000e+00  5.4043156632771017e-01 -3.9098948282960255e-01 0.0000000000000000e+00  7.1680324663903849e-01 -5.2634456848070199e-01 0.0000000000000000e+00  8.3579904937464566e-01 -5.8325591719434178e-01 0.0000000000000000e+00  9.4697247317065381e-01 -5.1095888907618481e-01 0.0000000000000000e+00  1.0965423881321263e+00 -3.6652081988852331e-01 0.0000000000000000e+00  1.2579499222343762e+00 -2.1062599203391530e-01 0.0000000000000000e+00  1.4100384581215506e+00 -6.0119029826311815e-02 0.0000000000000000e+00  1.5361125797172486e+00 7.3085624434252650e-02 0.0000000000000000e+00  0.0000000000000000e+00 0.0000000000000000e+00 0.0000000000000000e+00  0.0000000000000000e+00 0.0000000000000000e+00 0.0000000000000000e+00  0.0000000000000000e+00 0.0000000000000000e+00 0.0000000000000000e+00  0.0000000000000000e+00 0.0000000000000000e+00 0.0000000000000000e+00  0.0000000000000000e+00 0.0000000000000000e+00 0.0000000000000000e+00  0.0000000000000000e+00 0.0000000000000000e+00 0.0000000000000000e+00  0.0000000000000000e+00 0.0000000000000000e+00 0.0000000000000000e+00  0.0000000000000000e+00 0.0000000000000000e+00 0.0000000000000000e+00  0.0000000000000000e+00 0.0000000000000000e+00 0.0000000000000000e+00  2.0993828272291757e+00 -2.4570896205891979e-01 0.0000000000000000e+00  1.7576899430024244e+00 1.5324593731831489e-02 0.0000000000000000e+00  1.8445907592202729e-01 -1.0843708875824368e-01 0.0000000000000000e+00  1.9637611503911237e-01 3.9214722464453074e-02 0.0000000000000000e+00  1.4524523197609778e+00 2.3439845692962011e-01 0.0000000000000000e+00  1.1191590480673859e+00 3.5376566771993767e-01 0.0000000000000000e+00  2.1065310139752023e+00 9.8670897204862468e-02 0.0000000000000000e+00  1.0911643992327313e+00 -4.2025708407931278e-01 0.0000000000000000e+00  1.5843424824603342e-02 -4.1975999355096237e-02 0.0000000000000000e+00  5.8312887122840085e-01 3.0878083852960397e-01 0.0000000000000000e+00  7.5904989192825434e-01 -5.1874432078262200e-01 0.0000000000000000e+00  1.0853330108446699e-01 5.6101846065587151e-02 0.0000000000000000e+00  1.5912302276954937e-01 -1.1637608500570938e-01 0.0000000000000000e+00  1.6558008468346144e+00 1.3776654844806008e-01 0.0000000000000000e+00  1.5558356656594230e+00 1.9510343413247526e-02 0.0000000000000000e+00  2.3426192144419641e-01 2.4214243192324603e-01 0.0000000000000000e+00  1.7431521035404065e+00 -4.4088185724238321e-01 0.0000000000000000e+00  1.7473100648029596e+00 -6.0241484841428805e-01 0.0000000000000000e+00  1.9613287006003519e+00 -6.7845968184968197e-01 0.0000000000000000e+00  2.0099830618309165e+00 -2.5189543148206167e-01 0.0000000000000000e+00  2.2479249462719714e-01 3.8039615553376077e-01 0.0000000000000000e+00  1.2749822285446166e+00 2.2439846456998150e-01 0.0000000000000000e+00  3.5244582581316630e-02 -3.2342553227181964e-02 0.0000000000000000e+00  1.6835510972607943e+00 4.7129776973666319e-02 0.0000000000000000e+00  1.3690774666841923e+00 -2.1283139614237251e-01 0.0000000000000000e+00  2.0087919933436278e+00 1.1667415467181810e-01 0.0000000000000000e+00  1.8572332001042124e+00 -3.5075928990240000e-02 0.0000000000000000e+00  1.7668144042104512e+00 6.8202778455890567e-02 0.0000000000000000e+00  2.8934302305441967e-01 1.4052598401743052e-01 0.0000000000000000e+00  4.4536229617261097e-01 -3.0071281152240464e-01 0.0000000000000000e+00  8.9977143555170380e-01 4.2927647953613651e-01 0.0000000000000000e+00  1.5267160214676319e+00 1.3037709398812056e-01 0.0000000000000000e+00  8.5460758888286914e-02 -9.2142350804146442e-02 0.0000000000000000e+00  1.2583373838174805e+00 3.2660599632566767e-01 0.0000000000000000e+00  1.4223685534247579e+00 2.5325699629506099e-01 0.0000000000000000e+00  2.7303193307576989e-01 8.7830618544094366e-02 0.0000000000000000e+00  3.5737038541003380e-01 -2.3176739438571617e-01 0.0000000000000000e+00  6.4015218322904632e-02 -2.7555208983608852e-02 0.0000000000000000e+00  7.0016633898753788e-02 -2.9067936909545214e-03 0.0000000000000000e+00  9.1702815713346331e-01 -5.2768401525174713e-01 0.0000000000000000e+00  2.1264345508627001e+00 6.8213667686603738e-02 0.0000000000000000e+00  1.2310096679095350e+00 2.7484385232323238e-01 0.0000000000000000e+00  2.0423513348044118e+00 8.7122177225738243e-02 0.0000000000000000e+00  2.0724838830105039e+00 9.3291169381724881e-02 0.0000000000000000e+00  1.1256656412087520e+00 -4.1527896446139345e-01 0.0000000000000000e+00  7.0017073156108858e-03 -2.2108976953663366e-02 0.0000000000000000e+00  6.2422199959503777e-01 3.1465272499862279e-01 0.0000000000000000e+00  7.8663826681443927e-01 -5.5582793675506514e-01 0.0000000000000000e+00  1.5316417857994538e-01 1.9503001689349300e-01 0.0000000000000000e+00  1.9844578505927932e+00 -2.9499784459327771e-01 0.0000000000000000e+00  2.4346714089250840e-01 3.1883179147608842e-01 0.0000000000000000e+00  1.8240575145970557e+00 -3.4296653403501492e-01 0.0000000000000000e+00  1.6515753425916071e+00 -3.4976380798911461e-01 0.0000000000000000e+00  1.8499643272718318e+00 -6.8911818348203313e-01 0.0000000000000000e+00  1.7533142866221774e+00 -5.1614105785132869e-01 0.0000000000000000e+00  2.0184210656057129e+00 -6.4988247167171387e-01 0.0000000000000000e+00  2.0598473234576438e+00 -2.3237601598395757e-01 0.0000000000000000e+00  1.6802238034212462e+00 -5.7577552968065626e-01 0.0000000000000000e+00  2.0358800477331940e+00 -2.9364387396376235e-01 0.0000000000000000e+00  1.7179724934993699e+00 -6.7707951359232188e-01 0.0000000000000000e+00  1.9860841995267438e+00 -7.3427921149029096e-01 0.0000000000000000e+00  1.9411224374602902e+00 -6.1918679492717554e-01 0.0000000000000000e+00  1.9263087029147771e-01 3.6332815851461253e-01 0.0000000000000000e+00  2.4068111483277393e-01 4.0792547327655909e-01 0.0000000000000000e+00  2.0298345664750361e-01 4.0167727707635259e-01 0.0000000000000000e+00  1.2587456502299250e+00 2.3326940955011974e-01 0.0000000000000000e+00  1.2811370517734311e+00 2.2064894731877574e-01 0.0000000000000000e+00  1.2772864824031980e+00 2.2548055719991786e-01 0.0000000000000000e+00  1.5462889688890757e+00 -1.4553081702769211e-01 0.0000000000000000e+00  1.9033196431228463e+00 1.2205833273378662e-01 0.0000000000000000e+00  4.2947132130412957e-02 -2.4584896278398022e-02 0.0000000000000000e+00  2.0318522830695183e+00 3.6536283944212246e-02 0.0000000000000000e+00  1.7166346735286953e-01 -1.1338498771068896e-01 0.0000000000000000e+00  1.4846246970083359e+00 -7.5304249590447583e-02 0.0000000000000000e+00  2.1153133166882507e+00 1.1632644064844984e-01 0.0000000000000000e+00  1.9629976067168042e+00 6.5772102531591201e-02 0.0000000000000000e+00  4.6091052833050256e-01 2.7649685397682555e-01 0.0000000000000000e+00  8.0429008054047416e-03 -2.5262159485011326e-02 0.0000000000000000e+00  3.9711072447950285e-01 1.6739774818256334e-01 0.0000000000000000e+00  4.2122099995095884e-02 -2.3773346975663721e-02 0.0000000000000000e+00  1.6845678476326340e+00 4.4467049419217121e-02 0.0000000000000000e+00  1.1821920743262733e+00 -3.4226527673167434e-01 0.0000000000000000e+00  1.1300122019728698e-01 3.8154469785128743e-02 0.0000000000000000e+00  9.7403766119091606e-01 3.6433112947450208e-01 0.0000000000000000e+00  1.7462570421961257e+00 1.3682501204154870e-01 0.0000000000000000e+00  9.9854470905236603e-01 4.3146649594228792e-01 0.0000000000000000e+00  6.0941156881730063e-01 -3.9157883792621684e-01 0.0000000000000000e+00  1.6563044990927345e+00 1.5122758604435851e-01 0.0000000000000000e+00  1.3508158640963854e+00 2.6151197768284307e-01 0.0000000000000000e+00  7.2075193488333633e-01 4.2403940802974976e-01 0.0000000000000000e+00  9.6238797960814006e-03 -4.0323577188626246e-02 0.0000000000000000e+00  1.5888112031175698e+00 4.6909618497202321e-02 0.0000000000000000e+00  1.8572512716092924e+00 -1.5885288331064301e-01 0.0000000000000000e+00  8.6124509968303231e-02 1.7502955514020521e-02 0.0000000000000000e+00  6.3969621172410851e-01 -4.6368406181918781e-01 0.0000000000000000e+00  9.1246829695128906e-01 -5.1583661160512428e-01 0.0000000000000000e+00  1.9969318473468114e+00 -2.5147546318053920e-02 0.0000000000000000e+00  2.1156675645063339e-01 1.1646428204877614e-01 0.0000000000000000e+00  1.4406609353996488e-01 -2.0422724751965998e-01 0.0000000000000000e+00  2.0825951733979080e+00 1.0884125121353248e-01 0.0000000000000000e+00  1.2813261619129124e+00 2.9067149390978814e-01 0.0000000000000000e+00  4.0150365515309983e-02 -1.0085088540676714e-01 0.0000000000000000e+00  1.7352923828972500e-01 -1.2319224173794625e-01 0.0000000000000000e+00  1.3613608818143137e+00 2.7977682761712075e-01 0.0000000000000000e+00  1.3806481252897502e+00 2.4158415439307845e-01 0.0000000000000000e+00  1.5169503412426815e+00 2.2328557331216209e-01 0.0000000000000000e+00  9.1256657974780486e-01 -5.4003202648317206e-01 0.0000000000000000e+00  1.8913802787413878e+00 8.4678750918666765e-02 0.0000000000000000e+00  8.1354380779376489e-01 -5.4718909705223240e-01 0.0000000000000000e+00  3.2175562608583014e-01 1.6510964279012638e-01 0.0000000000000000e+00  3.6467549171085828e-01 -3.0860252925328729e-01 0.0000000000000000e+00  1.2667650295409676e+00 2.3867867737292531e-01 0.0000000000000000e+00  1.2022106994102000e+00 -4.1350800842566537e-01 0.0000000000000000e+00  7.3608256316009202e-01 3.6910040598589777e-01 0.0000000000000000e+00  2.0621111311655014e+00 -1.5986304836076207e-01 0.0000000000000000e+00  1.8192034378428862e-01 