<?xml version="1.0"?>
<VTKFile type="UnstructuredGrid"  version="0.1"  >
<UnstructuredGrid>
<Piece  NumberOfPoints="2868" NumberOfCells="5400">
<Points>
<DataArray  type="Float64"  NumberOfComponents="3"  format="ascii">0.534923 0.326073 0  0.510642 0.314196 0  0.466125 0.293082 0  0.436448 0.281205 0  0.409468 0.275927 0  0.368998 0.270648 0  0.35281 0.275927 0  0.381139 0.302319 0  0.405421 0.326073 0  0.410817 0.33531 0  0.408119 0.349826 0  0.400025 0.357744 0  0.375743 0.368301 0  0.329878 0.392055 0  0.297502 0.432963 0  0.282663 0.476511 0  0.285361 0.524018 0  0.298851 0.572845 0  0.317737 0.6045160000000001 0  0.337972 0.6361869999999999 0  0.360904 0.674457 0  0.368998 0.69953 0  0.359555 0.7219640000000001 0  0.360904 0.757594 0  0.370347 0.766831 0  0.381139 0.762872 0  0.390582 0.741758 0  0.404072 0.720644 0  0.424307 0.707448 0  0.447239 0.702169 0  0.480964 0.704808 0  0.479615 0.6889729999999999 0  0.468823 0.675776 0  0.447239 0.6691780000000001 0  0.428354 0.6691780000000001 0  0.410817 0.6639 0  0.404072 0.653343 0  0.395978 0.628269 0  0.387884 0.59132 0  0.389233 0.576804 0  0.397327 0.557009 0  0.410817 0.547772 0  0.424307 0.546452 0  0.437797 0.55305 0  0.44589 0.5662469999999999 0  0.441843 0.582082 0  0.439145 0.5979179999999999 0  0.449937 0.609795 0  0.468823 0.603196 0  0.479615 0.59 0  0.489058 0.570205 0  0.494454 0.546452 0  0.505246 0.522699 0  0.522783 0.509502 0  0.55246 0.494986 0  0.586185 0.484429 0  0.615863 0.48047 0  0.64554 0.473872 0  0.6671240000000001 0.461995 0  0.683312 0.451438 0  0.696802 0.435603 0  0.703547 0.417128 0  0.7116400000000001 0.393374 0  0.7183850000000001 0.37226 0  0.7251300000000001 0.364342 0  0.739969 0.353785 0  0.7453650000000001 0.344548 0  0.7453650000000001 0.327393 0  0.737271 0.318155 0  0.7183850000000001 0.316835 0  0.7008490000000001 0.319475 0  0.677916 0.318155 0  0.650936 0.316835 0  0.610467 0.318155 0  0.57944 0.324753 0  0.559205 0.328712 0  0.5389699999999999 0.326073 0  1 1 0  1 0 0  0 0 0  0 1 0  0.532238 0.32476 0  0.528748 0.323052 0  0.52421 0.320833 0  0.518311 0.317947 0  0.503447 0.310783 0  0.494093 0.306347 0  0.481933 0.30058 0  0.452151 0.28749 0  0.392327 0.273691 0  0.379141 0.271971 0  0.360474 0.283066 0  0.369797 0.291752 0  0.391424 0.31238 0  0.399335 0.32012 0  0.40958 0.341964 0  0.393939 0.36039 0  0.386028 0.36383 0  0.364248 0.374254 0  0.349304 0.381994 0  0.315801 0.409841 0  0.292986 0.551616 0  0.350934 0.657818 0  0.360127 0.737055 0  0.360566 0.748664 0  0.385245 0.753692 0  0.396447 0.732578 0  0.466301 0.703661 0  0.459439 0.672908 0  0.418442 0.666195 0  0.400553 0.642441 0  0.39255 0.612619 0  0.389913 0.60058 0  0.392752 0.568197 0  0.444131 0.573132 0  0.458149 0.606926 0  0.5005540000000001 0.533026 0  0.571522 0.489019 0  0.632637 0.476741 0  0.689177 0.444553 0  0.708121 0.403702 0  0.715453 0.38144 0  0.732406 0.359166 0  0.7453650000000001 0.337089 0  0.72906 0.317581 0  0.629879 0.317522 0  0.59293 0.321884 0  0.568003 0.326991 0  0.55202 0.327775 0  0.546493 0.327054 0  0.542241 0.326499 0  1 0.9 0  1 0.8 0  1 0.7 0  1 0.6 0  1 0.5 0  1 0.4 0  1 0.3 0  1 0.2 0  1 0.1 0  0.9 0 0  0.8 0 0  0.7 0 0  0.6 0 0  0.5 0 0  0.4 0 0  0.3 0 0  0.2 0 0  0.1 0 0  0.1 1 0  0.2 1 0  0.3 1 0  0.4 1 0  0.5 1 0  0.6 1 0  0.7 1 0  0.8 1 0  0.9 1 0  0 0.1 0  0 0.2 0  0 0.3 0  0 0.4 0  0 0.5 0  0 0.6 0  0 0.7 0  0 0.8 0  0 0.9 0  0.535686 0.5031910000000001 0  0.753987 0.733359 0  0.167145 0.741436 0  0.173378 0.257204 0  0.733497 0.159862 0  0.554096 0.15788 0  0.849187 0.479053 0  0.488793 0.838452 0  0.138507 0.5592 0  0.30686 0.154944 0  0.348904 0.890523 0  0.058006 0.065099 0  0.06984899999999999 0.937917 0  0.93633 0.939704 0  0.934625 0.053613 0  0.343397 0.333452 0  0.473272 0.639943 0  0.433266 0.638072 0  0.415174 0.58269 0  0.533435 0.545042 0  0.390848 0.340652 0  0.53655 0.320242 0  0.127966 0.393775 0  0.83861 0.850455 0  0.635242 0.8551299999999999 0  0.852158 0.633441 0  0.653427 0.626848 0  0.861226 0.24292 0  0.166128 0.12976 0  0.216875 0.8698709999999999 0  0.458305 0.11179 0  0.84446 0.101633 0  0.202024 0.642528 0  0.644825 0.115855 0  0.671342 0.218358 0  0.251354 0.286186 0  0.262388 0.75153 0  0.063044 0.751571 0  0.068189 0.242962 0  0.435781 0.9053949999999999 0  0.934144 0.451133 0  0.568393 0.237622 0  0.814984 0.395506 0  0.752951 0.517227 0  0.456254 0.780699 0  0.073352 0.531116 0  0.337731 0.206071 0  0.363213 0.960371 0  0.330742 0.363592 0  0.516613 0.55705 0  0.369057 0.332992 0  0.500926 0.617309 0  0.498004 0.665534 0  0.412142 0.61178 0  0.454233 0.6366039999999999 0  0.422782 0.567496 0  0.541193 0.5214800000000001 0  0.439761 0.65557 0  0.5163 0.533672 0  0.414775 0.64562 0  0.40073 0.576135 0  0.430362 0.5880339999999999 0  0.385432 0.351492 0  0.400298 0.335397 0  0.398325 0.348194 0  0.528702 0.314885 0  0.540814 0.322334 0  0.534477 0.322953 0  0.619095 0.743583 0  0.885162 0.737972 0  0.08076 0.668849 0  0.90734 0.36634 0  0.09468699999999999 0.868937 0  0.759838 0.912152 0  0.901518 0.540898 0  0.747285 0.607479 0  0.229182 0.071641 0  0.06915399999999999 0.450091 0  0.244775 0.203309 0  0.076534 0.331755 0  0.897847 0.167826 0  0.578909 0.911415 0  0.07713299999999999 0.146341 0  0.477215 0.203448 0  0.922631 0.869341 0  0.517415 0.074785 0  0.297026 0.827793 0  0.7832710000000001 0.246505 0  0.74519 0.061079 0  0.36033 0.069068 0  0.210313 0.475228 0  0.859426 0.928758 0  0.5745479999999999 0.609182 0  0.243069 0.383398 0  0.283099 0.934598 0  0.417416 0.843141 0  0.643942 0.553164 0  0.112687 0.079336 0  0.281357 0.658386 0  0.765043 0.436177 0  0.611361 0.198486 0  0.234496 0.58911 0  0.206479 0.702638 0  0.679608 0.155818 0  0.62682 0.259978 0  0.690538 0.264164 0  0.448938 0.956308 0  0.808154 0.328403 0  0.379583 0.91913 0  0.308083 0.297769 0  0.312358 0.730249 0  0.563101 0.278576 0  0.435597 0.746198 0  0.385475 0.225229 0  0.572248 0.518034 0  0.357864 0.35422 0  0.497647 0.641694 0  0.458101 0.655768 0  0.360474 0.310727 0  0.467038 0.620139 0  0.47798 0.659909 0  0.41102 0.628072 0  0.48324 0.609015 0  0.427544 0.617941 0  0.388633 0.328253 0  0.405336 0.599404 0  0.408351 0.565178 0  0.42395 0.600985 0  0.431562 0.576523 0  0.424905 0.6551979999999999 0  0.398064 0.58782 0  0.427739 0.557934 0  0.5192909999999999 0.303443 0  0.53142 0.320293 0  0.5449000000000001 0.323642 0  0.537166 0.323513 0  0.153974 0.920841 0  0.9181859999999999 0.67343 0  0.759946 0.820588 0  0.5375259999999999 0.783091 0  0.816532 0.545843 0  0.813991 0.178083 0  0.836774 0.702023 0  0.149815 0.318856 0  0.662287 0.923338 0  0.680146 0.791192 0  0.708961 0.663172 0  0.9372779999999999 0.287318 0  0.574622 0.6881660000000001 0  0.5894740000000001 0.076262 0  0.502822 0.926683 0  0.222269 0.811068 0  0.380457 0.164786 0  0.15321 0.684154 0  0.458063 0.051413 0  0.161702 0.056026 0  0.199351 0.198818 0  0.298946 0.09553200000000001 0  0.902465 0.795949 0  0.121139 0.791477 0  0.906269 0.112287 0  0.056109 0.822332 0  0.512172 0.13237 0  0.940964 0.741805 0  0.888887 0.408777 0  0.354543 0.825964 0  0.808736 0.068638 0  0.068507 0.394071 0  0.719105 0.563843 0  0.247287 0.149664 0  0.293062 0.237128 0  0.240524 0.434997 0  0.141255 0.623289 0  0.945202 0.160621 0  0.502914 0.247629 0  0.144669 0.480811 0  0.665025 0.060817 0  0.728047 0.224344 0  0.861995 0.313312 0  0.200068 0.534235 0  0.253262 0.965623 0  0.893804 0.49307 0  0.604391 0.572456 0  0.947088 0.345347 0  0.439372 0.227307 0  0.629847 0.159823 0  0.273405 0.880181 0  0.302744 0.776823 0  0.781502 0.295365 0  0.275342 0.349602 0  0.7283849999999999 0.472798 0  0.229136 0.246478 0  0.807794 0.480346 0  0.709476 0.112786 0  0.275506 0.694991 0  0.771674 0.394419 0  0.449715 0.861802 0  0.419159 0.799696 0  0.674851 0.503139 0  0.280443 0.61016 0  0.572443 0.192538 0  0.393113 0.87525 0  0.405555 0.948428 0  0.330942 0.934103 0  0.540509 0.597101 0  0.312763 0.6689310000000001 0  0.254368 0.540179 0  0.595265 0.25915 0  0.606679 0.234099 0  0.657131 0.279138 0  0.722458 0.279478 0  0.333 0.308056 0  0.351529 0.246142 0  0.455714 0.7257940000000001 0  0.585239 0.295143 0  0.340062 0.72492 0  0.545593 0.293773 0  0.555449 0.545426 0  0.414311 0.737314 0  0.590854 0.502323 0  0.350507 0.368444 0  0.484423 0.625665 0  0.483899 0.674542 0  0.378137 0.317274 0  0.446416 0.646404 0  0.373532 0.347654 0  0.446876 0.619769 0  0.466106 0.666068 0  0.437545 0.609254 0  0.434988 0.565726 0  0.41462 0.656829 0  0.418803 0.556961 0  0.398425 0.327446 0  0.517803 0.310421 0  0.549516 0.322918 0  0.57701 0.842889 0  0.8291269999999999 0.773906 0  0.643235 0.684732 0  0.134281 0.207734 0  0.865997 0.055966 0  0.680959 0.723345 0  0.165229 0.8415550000000001 0  0.54558 0.959672 0  0.783726 0.656439 0  0.913315 0.595533 0  0.699439 0.860667 0  0.785839 0.125076 0  0.551673 0.037713 0  0.9200970000000001 0.223214 0  0.206406 0.299726 0  0.087064 0.596401 0  0.935644 0.394252 0  0.964557 0.252582 0  0.230124 0.928346 0  0.120579 0.271764 0  0.8572149999999999 0.524082 0  0.7670979999999999 0.5551469999999999 0  0.936094 0.507131 0  0.804064 0.59585 0  0.700565 0.608273 0  0.429773 0.174231 0  0.117746 0.727333 0  0.5389620000000001 0.730231 0  0.862761 0.359173 0  0.821444 0.284046 0  0.193552 0.35818 0  0.234923 0.505555 0  0.193209 0.421217 0  0.220144 0.755896 0  0.594015 0.131642 0  0.283813 0.195855 0  0.517519 0.213961 0  0.553509 0.639116 0  0.280391 0.378018 0  0.852183 0.436817 0  0.746983 0.197173 0  0.821806 0.221318 0  0.449853 0.828453 0  0.883758 0.453926 0  0.183484 0.589542 0  0.348384 0.129314 0  0.255254 0.838525 0  0.504849 0.798516 0  0.320344 0.863432 0  0.611669 0.525425 0  0.265864 0.804962 0  0.72056 0.521442 0  0.613372 0.6101220000000001 0  0.481262 0.881068 0  0.655778 0.191988 0  0.701921 0.196918 0  0.5658260000000001 0.5731810000000001 0  0.46914 0.240927 0  0.343219 0.173284 0  0.888786 0.278502 0  0.244113 0.6750930000000001 0  0.739546 0.417914 0  0.784023 0.355942 0  0.326805 0.265549 0  0.248616 0.6
[...]
<PointData  Vectors="f_21"> 
<DataArray  type="Float64"  Name="f_21"  NumberOfComponents="3" format="ascii">1.0608186590379285e+00 1.6099300744094674e-01 0.0000000000000000e+00  1.0291728522200430e+00 1.7577658456659370e-01 0.0000000000000000e+00  9.2630040453471629e-01 2.0027377834429871e-01 0.0000000000000000e+00  8.3169872878013751e-01 2.0915037862694430e-01 0.0000000000000000e+00  7.3945750788150466e-01 2.0873073037043935e-01 0.0000000000000000e+00  5.7472831372535416e-01 2.1324230273393946e-01 0.0000000000000000e+00  4.7307137481288614e-01 2.0766089242007546e-01 0.0000000000000000e+00  3.4516914843740332e-01 3.0821635902832062e-01 0.0000000000000000e+00  2.7635297363684530e-01 3.7503965590455030e-01 0.0000000000000000e+00  2.4998551605598299e-01 3.9056914113438540e-01 0.0000000000000000e+00  2.0810744373036386e-01 3.8276992643368013e-01 0.0000000000000000e+00  1.8500141905370471e-01 3.5897885186571932e-01 0.0000000000000000e+00  1.5625041202783574e-01 2.8505925501686602e-01 0.0000000000000000e+00  1.1235202370011416e-01 1.5006643806555367e-01 0.0000000000000000e+00  6.1621295386584986e-02 6.1349154214670160e-02 0.0000000000000000e+00  3.0494621982388441e-02 -3.6505045860859876e-03 0.0000000000000000e+00  2.5925086992855062e-02 -6.5178148665795577e-02 0.0000000000000000e+00  4.8267726148794321e-02 -1.3395173877621491e-01 0.0000000000000000e+00  8.1282403303519019e-02 -1.9422685874323103e-01 0.0000000000000000e+00  1.2825023111099301e-01 -2.5716951587914383e-01 0.0000000000000000e+00  2.0711298729598257e-01 -3.3460092033709288e-01 0.0000000000000000e+00  2.7159164639893207e-01 -3.6578107403072074e-01 0.0000000000000000e+00  3.3576474094474218e-01 -3.5367302565012754e-01 0.0000000000000000e+00  5.3037530694834223e-01 -3.7856028859616886e-01 0.0000000000000000e+00  6.8442366112231701e-01 -4.1320628356634287e-01 0.0000000000000000e+00  8.1053463202230180e-01 -4.1360935910023222e-01 0.0000000000000000e+00  9.9438240843427039e-01 -4.0282920217603285e-01 0.0000000000000000e+00  1.0849954261311492e+00 -3.6216316796747783e-01 0.0000000000000000e+00  1.1246725670292186e+00 -3.1668059101163731e-01 0.0000000000000000e+00  1.1440533961202406e+00 -2.8205587047177605e-01 0.0000000000000000e+00  1.2000357981198486e+00 -2.7748339830535712e-01 0.0000000000000000e+00  1.2864725006262021e+00 -2.9751894401782258e-01 0.0000000000000000e+00  1.3272422521817164e+00 -3.2551390218754156e-01 0.0000000000000000e+00  1.3410530854323413e+00 -3.8052438601105248e-01 0.0000000000000000e+00  1.3390697583258522e+00 -4.3144678387387120e-01 0.0000000000000000e+00  1.3525791358881181e+00 -4.7826803981835347e-01 0.0000000000000000e+00  1.3800342147788383e+00 -4.9610356447737697e-01 0.0000000000000000e+00  1.4449564173593168e+00 -5.1840194829366526e-01 0.0000000000000000e+00  1.5408155928614946e+00 -5.4092264087832242e-01 0.0000000000000000e+00  1.5783345693417550e+00 -5.3773133857246314e-01 0.0000000000000000e+00  1.6295946113489050e+00 -5.1708635462078201e-01 0.0000000000000000e+00  1.6535929890832262e+00 -4.8217975308899347e-01 0.0000000000000000e+00  1.6570809511244229e+00 -4.4701043856715622e-01 0.0000000000000000e+00  1.6397914758680348e+00 -4.1155253274231368e-01 0.0000000000000000e+00  1.6051108199251967e+00 -3.9022897283969471e-01 0.0000000000000000e+00  1.5639905463420967e+00 -4.0033323413333444e-01 0.0000000000000000e+00  1.5236614150941847e+00 -4.0514462775265458e-01 0.0000000000000000e+00  1.4917155089000729e+00 -3.7206539605191724e-01 0.0000000000000000e+00  1.5034978028360442e+00 -3.1554948245941905e-01 0.0000000000000000e+00  1.5256449528930465e+00 -2.8318170935616427e-01 0.0000000000000000e+00  1.5547063269985499e+00 -2.5587389193910060e-01 0.0000000000000000e+00  1.5874229812917657e+00 -2.4099987654641891e-01 0.0000000000000000e+00  1.6204435787575751e+00 -2.2215058878936300e-01 0.0000000000000000e+00  1.6386499259145559e+00 -1.9451074248785130e-01 0.0000000000000000e+00  1.6569156375951424e+00 -1.4801351011994943e-01 0.0000000000000000e+00  1.6678603594276418e+00 -9.8344297379966403e-02 0.0000000000000000e+00  1.6699860062392915e+00 -5.7604427047531638e-02 0.0000000000000000e+00  1.6746574389086026e+00 -1.7753407374879040e-02 0.0000000000000000e+00  1.6834268691530605e+00 1.2245964022369330e-02 0.0000000000000000e+00  1.6869576662209278e+00 3.8551629703187727e-02 0.0000000000000000e+00  1.6868404083586839e+00 6.5224413538525441e-02 0.0000000000000000e+00  1.6787660219005753e+00 8.5762162690345353e-02 0.0000000000000000e+00  1.6616049971828819e+00 1.0595120921687824e-01 0.0000000000000000e+00  1.6412708346871949e+00 1.1584213901339734e-01 0.0000000000000000e+00  1.6343043544338602e+00 1.1654575080948654e-01 0.0000000000000000e+00  1.6163694723646320e+00 1.2563623056801662e-01 0.0000000000000000e+00  1.5885619268663727e+00 1.3472281063841873e-01 0.0000000000000000e+00  1.5126026177032590e+00 1.4857026702673637e-01 0.0000000000000000e+00  1.4434198537579843e+00 1.5829228747364837e-01 0.0000000000000000e+00  1.3703113990887819e+00 1.5593250803315328e-01 0.0000000000000000e+00  1.3287475733377865e+00 1.5351040725172363e-01 0.0000000000000000e+00  1.2844414078335755e+00 1.5859281397251015e-01 0.0000000000000000e+00  1.2271806216859482e+00 1.6459141731914745e-01 0.0000000000000000e+00  1.1439862264261629e+00 1.6601756013235378e-01 0.0000000000000000e+00  1.0929344578961060e+00 1.5819577902679310e-01 0.0000000000000000e+00  1.0755793934553903e+00 1.5523089504282361e-01 0.0000000000000000e+00  1.0625558625574558e+00 1.5950404726003800e-01 0.0000000000000000e+00  1.4133958213060271e+00 1.4624436830984136e-01 0.0000000000000000e+00  1.4376762436068991e+00 7.3709179793856119e-02 0.0000000000000000e+00  0.0000000000000000e+00 0.0000000000000000e+00 0.0000000000000000e+00  0.0000000000000000e+00 0.0000000000000000e+00 0.0000000000000000e+00  1.0588760526275476e+00 1.6258293506676869e-01 0.0000000000000000e+00  1.0553524548591906e+00 1.6470053765120585e-01 0.0000000000000000e+00  1.0498303374604760e+00 1.6746169100024533e-01 0.0000000000000000e+00  1.0416082023112174e+00 1.7111886121530331e-01 0.0000000000000000e+00  1.0162032700468644e+00 1.7997438603505300e-01 0.0000000000000000e+00  9.9730302605515520e-01 1.8549093961900243e-01 0.0000000000000000e+00  9.6963250013281521e-01 1.9222837556517811e-01 0.0000000000000000e+00  8.8537291318946787e-01 2.0546803090035398e-01 0.0000000000000000e+00  6.7999776410298085e-01 2.0834400466818717e-01 0.0000000000000000e+00  6.2895874684403164e-01 2.1000531048936022e-01 0.0000000000000000e+00  4.2005010194561049e-01 2.4882799001536343e-01 0.0000000000000000e+00  3.8100757594485285e-01 2.7747718128363291e-01 0.0000000000000000e+00  3.1515134305438375e-01 3.3569566014698837e-01 0.0000000000000000e+00  2.9321326859417646e-01 3.5773889653031749e-01 0.0000000000000000e+00  2.3087636928123936e-01 3.8702080478589612e-01 0.0000000000000000e+00  1.7733059482998273e-01 3.4074264726948517e-01 0.0000000000000000e+00  1.6770974807080227e-01 3.1671024793148683e-01 0.0000000000000000e+00  1.4235606980861668e-01 2.4969912467796163e-01 0.0000000000000000e+00  1.2749305757377080e-01 2.0533533859115086e-01 0.0000000000000000e+00  8.7977324520186403e-02 1.1059717132855770e-01 0.0000000000000000e+00  3.5444481798679740e-02 -1.0278373546670015e-01 0.0000000000000000e+00  1.6925459627187445e-01 -3.0065058364899744e-01 0.0000000000000000e+00  3.9534705126262559e-01 -3.6937086697305943e-01 0.0000000000000000e+00  4.5770595707001738e-01 -3.7993857070073117e-01 0.0000000000000000e+00  9.1657971756467804e-01 -4.1708889579324182e-01 0.0000000000000000e+00  1.0396915483010127e+00 -3.8414012330293268e-01 0.0000000000000000e+00  1.1617835762107411e+00 -2.6883744500158979e-01 0.0000000000000000e+00  1.3335902644875817e+00 -3.4874956121186290e-01 0.0000000000000000e+00  1.3466170142057126e+00 -4.5801557154050504e-01 0.0000000000000000e+00  1.4082237412186382e+00 -5.0570661810005979e-01 0.0000000000000000e+00  1.4856574083669043e+00 -5.2812823408481158e-01 0.0000000000000000e+00  1.5168677279663103e+00 -5.3543019776144485e-01 0.0000000000000000e+00  1.6005981613394287e+00 -5.2878796178866239e-01 0.0000000000000000e+00  1.5871397280922295e+00 -3.9475627349649561e-01 0.0000000000000000e+00  1.4977386356951752e+00 -3.4740003899534555e-01 0.0000000000000000e+00  1.6058707650587942e+00 -2.3001025930262556e-01 0.0000000000000000e+00  1.6631787999328127e+00 -1.1943765509470794e-01 0.0000000000000000e+00  1.6728534223366276e+00 -3.5189402615391142e-02 0.0000000000000000e+00  1.6878548551011998e+00 5.0387100750046911e-02 0.0000000000000000e+00  1.6700907448447246e+00 9.8061574204313190e-02 0.0000000000000000e+00  1.6501150860530474e+00 1.1301395739981739e-01 0.0000000000000000e+00  1.6271314460384581e+00 1.1942724868295225e-01 0.0000000000000000e+00  1.5598283578992944e+00 1.4650144631983897e-01 0.0000000000000000e+00  1.4072148771962603e+00 1.5620046637407239e-01 0.0000000000000000e+00  1.1828812266023605e+00 1.6574572640277468e-01 0.0000000000000000e+00  1.1113121409692568e+00 1.6177573035518961e-01 0.0000000000000000e+00  1.0814903742628323e+00 1.5591104420531862e-01 0.0000000000000000e+00  1.0716209321658907e+00 1.5610663567213379e-01 0.0000000000000000e+00  1.0678156470598039e+00 1.5737323153285560e-01 0.0000000000000000e+00  1.0648240283235946e+00 1.5850344232288505e-01 0.0000000000000000e+00  1.5182608803080104e+00 1.6217468333933507e-01 0.0000000000000000e+00  1.6067620937612843e+00 1.6152849715901182e-01 0.0000000000000000e+00  1.6975687509483666e+00 1.4625101118170294e-01 0.0000000000000000e+00  1.7876084063965694e+00 1.0862333467047788e-01 0.0000000000000000e+00  1.8384838338372407e+00 4.2643068975642809e-02 0.0000000000000000e+00  1.8067739213056910e+00 -2.1940507944093187e-02 0.0000000000000000e+00  1.6950873921797773e+00 -4.6132412591982509e-02 0.0000000000000000e+00  1.5776988579964728e+00 -1.3245378269607913e-02 0.0000000000000000e+00  1.4985318648775303e+00 3.5720059631010784e-02 0.0000000000000000e+00  1.3381843328163510e+00 1.3597918577135756e-01 0.0000000000000000e+00  1.2315069843542219e+00 2.0180324704203792e-01 0.0000000000000000e+00  1.1235275290440681e+00 2.6610616823583222e-01 0.0000000000000000e+00  1.0064956527844426e+00 3.1962195856149167e-01 0.0000000000000000e+00  8.8203457313835898e-01 3.5639383464527707e-01 0.0000000000000000e+00  7.5955594654822478e-01 3.4787471288195493e-01 0.0000000000000000e+00  6.1524105424928155e-01 2.7902454423051581e-01 0.0000000000000000e+00  4.3760847993488561e-01 1.9067177457084084e-01 0.0000000000000000e+00  2.3593984526632977e-01 1.1979520935414702e-01 0.0000000000000000e+00  2.6833338200392326e-01 -1.6135491239804858e-01 0.0000000000000000e+00  4.7865245515691268e-01 -2.8785317196004501e-01 0.0000000000000000e+00  6.4325978508940174e-01 -4.0764883254583251e-01 0.0000000000000000e+00  7.6436684001123456e-01 -4.4646499737721318e-01 0.0000000000000000e+00  8.8211742061608522e-01 -3.8533687874900407e-01 0.0000000000000000e+00  1.0110388429411252e+00 -2.8520732510902275e-01 0.0000000000000000e+00  1.1292195811987791e+00 -1.8516457256450433e-01 0.0000000000000000e+00  1.2294501656200714e+00 -8.1367366432586019e-02 0.0000000000000000e+00  1.3205668879467976e+00 3.4777954384326452e-02 0.0000000000000000e+00  0.0000000000000000e+00 0.0000000000000000e+00 0.0000000000000000e+00  0.0000000000000000e+00 0.0000000000000000e+00 0.0000000000000000e+00  0.0000000000000000e+00 0.0000000000000000e+00 0.0000000000000000e+00  0.0000000000000000e+00 0.0000000000000000e+00 0.0000000000000000e+00  0.0000000000000000e+00 0.0000000000000000e+00 0.0000000000000000e+00  0.0000000000000000e+00 0.0000000000000000e+00 0.0000000000000000e+00  0.0000000000000000e+00 0.0000000000000000e+00 0.0000000000000000e+00  0.0000000000000000e+00 0.0000000000000000e+00 0.0000000000000000e+00  0.0000000000000000e+00 0.0000000000000000e+00 0.0000000000000000e+00  1.6468234548038163e+00 -1.7411240009840548e-01 0.0000000000000000e+00  1.4748840912196668e+00 -1.9471268161450610e-02 0.0000000000000000e+00  1.8748510039658500e-01 -6.2688374542164638e-02 0.0000000000000000e+00  2.2034714625330279e-01 1.2221107453657443e-02 0.0000000000000000e+00  1.2549739560266686e+00 1.9540355860763783e-01 0.0000000000000000e+00  9.9533149292870104e-01 2.6434358630972132e-01 0.0000000000000000e+00  1.7385441561858499e+00 4.9536400191272159e-02 0.0000000000000000e+00  9.5478979557151622e-01 -3.1320421341962079e-01 0.0000000000000000e+00  2.4866430606590075e-02 -1.6806122631075622e-02 0.0000000000000000e+00  5.4282510074425727e-01 1.9805230267173701e-01 0.0000000000000000e+00  6.7897604400283029e-01 -3.8894121590706476e-01 0.0000000000000000e+00  1.0974397780707178e-01 4.1703279396415216e-02 0.0000000000000000e+00  1.4156353277450787e-01 -7.6547816829408061e-02 0.0000000000000000e+00  1.4215335512938572e+00 9.1906790076022718e-02 0.0000000000000000e+00  1.4058569379556805e+00 9.5815073309683918e-02 0.0000000000000000e+00  2.4817347027585873e-01 1.9212637803125843e-01 0.0000000000000000e+00  1.4176851485599433e+00 -3.0948093007736188e-01 0.0000000000000000e+00  1.4194007928922630e+00 -4.1804823404826746e-01 0.0000000000000000e+00  1.5629332869737662e+00 -4.6993751547565887e-01 0.0000000000000000e+00  1.5892157451265649e+00 -1.7835876534437267e-01 0.0000000000000000e+00  2.3432032308088319e-01 3.3209957364237808e-01 0.0000000000000000e+00  1.0571969780479613e+00 1.6143821713590903e-01 0.0000000000000000e+00  6.1552363553085347e-02 -3.4935792871889186e-02 0.0000000000000000e+00  1.4275211178437819e+00 9.3571404250303233e-03 0.0000000000000000e+00  1.1841226919245802e+00 -1.7845709701612658e-01 0.0000000000000000e+00  1.6574716575976705e+00 4.2097895015205312e-02 0.0000000000000000e+00  1.5116664789125589e+00 -3.7556029288196964e-02 0.0000000000000000e+00  1.4876233515872399e+00 7.6505507485313290e-02 0.0000000000000000e+00  2.9337268004058503e-01 8.3432134144354880e-02 0.0000000000000000e+00  3.9701140521904571e-01 -2.1411940746643499e-01 0.0000000000000000e+00  8.2502127698204741e-01 3.0516339376303736e-01 0.0000000000000000e+00  1.3423521030955559e+00 1.3759830529422032e-01 0.0000000000000000e+00  1.0300396960040008e-01 -5.2956509655138442e-02 0.0000000000000000e+00  1.1166615203669694e+00 2.5431121440668741e-01 0.0000000000000000e+00  1.2129962570459101e+00 2.0880073057633758e-01 0.0000000000000000e+00  2.9370157700170124e-01 4.7093870702665547e-02 0.0000000000000000e+00  3.3811937185827018e-01 -1.6115376608715851e-01 0.0000000000000000e+00  6.7146725353347203e-02 -7.1204209827473077e-03 0.0000000000000000e+00  8.4079090309797780e-02 -9.7707708694341235e-03 0.0000000000000000e+00  8.2804345362517662e-01 -3.9343208828605963e-01 0.0000000000000000e+00  1.7883916686844719e+00 2.6964016443482362e-02 0.0000000000000000e+00  1.0533453520310585e+00 2.1027906114457648e-01 0.0000000000000000e+00  1.6838840616007382e+00 6.5642280821762836e-02 0.0000000000000000e+00  1.6726001424738832e+00 5.3311249786652873e-02 0.0000000000000000e+00  9.6667589723837344e-01 -3.0767594228332867e-01 0.0000000000000000e+00  1.5125435501892154e-02 -8.0504319618647426e-03 0.0000000000000000e+00  5.7487385493465704e-01 2.0612983378248120e-01 0.0000000000000000e+00  7.1391226853042822e-01 -4.2410750465536495e-01 0.0000000000000000e+00  1.7183160106237758e-01 1.5609666468140460e-01 0.0000000000000000e+00  1.5732146949311796e+00 -2.0659405009074797e-01 0.0000000000000000e+00  2.5376566580576593e-01 2.6762948740891879e-01 0.0000000000000000e+00  1.4724052428383538e+00 -2.4123974155998443e-01 0.0000000000000000e+00  1.3585687838187825e+00 -2.5000479878382781e-01 0.0000000000000000e+00  1.4875828674138865e+00 -4.7657474496619645e-01 0.0000000000000000e+00  1.4236091560671897e+00 -3.6007286513218023e-01 0.0000000000000000e+00  1.6021438305360900e+00 -4.5063733574343301e-01 0.0000000000000000e+00  1.6208096920431196e+00 -1.6548339211348276e-01 0.0000000000000000e+00  1.3753380369589410e+00 -4.0027088957440493e-01 0.0000000000000000e+00  1.6048919986402135e+00 -2.0539731995215968e-01 0.0000000000000000e+00  1.3999800955072519e+00 -4.6796839355135506e-01 0.0000000000000000e+00  1.5800030584047215e+00 -5.0796509843930204e-01 0.0000000000000000e+00  1.5490544099065064e+00 -4.2959173241404675e-01 0.0000000000000000e+00  2.0333152864082102e-01 3.1516464034324904e-01 0.0000000000000000e+00  2.4967000324260052e-01 3.6015431139593862e-01 0.0000000000000000e+00  2.1285239419469271e-01 3.5405665232243383e-01 0.0000000000000000e+00  1.0455922113098388e+00 1.6609652462731014e-01 0.0000000000000000e+00  1.0616694919023049e+00 1.5973172721909937e-01 0.0000000000000000e+00  1.0581656224235447e+00 1.6163031651479950e-01 0.0000000000000000e+00  1.3042138780809482e+00 -1.1946292678132478e-01 0.0000000000000000e+00  1.5795048629980577e+00 6.1474088450539949e-02 0.0000000000000000e+00  5.2996254397217023e-02 1.6159511538787581e-03 0.0000000000000000e+00  1.7026122233523078e+00 2.5696816478602846e-02 0.0000000000000000e+00  1.5790191285659413e-01 -6.9522158264887085e-02 0.0000000000000000e+00  1.2809449000802076e+00 -9.2105657739058974e-02 0.0000000000000000e+00  1.7582067808868973e+00 4.8067540278107369e-02 0.0000000000000000e+00  1.5998924888289729e+00 2.0943807344031586e-02 0.0000000000000000e+00  4.4167422603469669e-01 1.7228117337721296e-01 0.0000000000000000e+00  2.0316405409736088e-02 -2.2365961287214492e-02 0.0000000000000000e+00  3.9200503991802471e-01 9.9578281101825691e-02 0.0000000000000000e+00  6.2201068546141158e-02 -2.7656016636354114e-02 0.0000000000000000e+00  1.4473841148319924e+00 7.8897272042134162e-02 0.0000000000000000e+00  1.0535855839535810e+00 -2.6555139474139744e-01 0.0000000000000000e+00  1.2375511828104159e-01 2.1445846140449129e-02 0.0000000000000000e+00  8.6062209969812586e-01 2.5118963148618267e-01 0.0000000000000000e+00  1.4822746802721598e+00 9.0121098168055899e-02 0.0000000000000000e+00  9.1871167859849934e-01 3.1763936459985065e-01 0.0000000000000000e+00  5.4288412007439146e-01 -2.8604757919652118e-01 0.0000000000000000e+00  1.3941509156458149e+00 1.3261694631335436e-01 0.0000000000000000e+00  1.2086729286207671e+00 2.1736622077596518e-01 0.0000000000000000e+00  6.7182913327513993e-01 2.9091877287519813e-01 0.0000000000000000e+00  2.4217523302271782e-02 -2.9543358742034401e-02 0.0000000000000000e+00  1.3627743201648914e+00 8.8626766624312885e-03 0.0000000000000000e+00  1.4990048420802584e+00 -1.1784650307097158e-01 0.0000000000000000e+00  1.1800229782034995e-01 6.7910956462779223e-03 0.0000000000000000e+00  5.7111832323438472e-01 -3.5050251684059974e-01 0.0000000000000000e+00  8.0691913225998135e-01 -3.8338490908086725e-01 0.0000000000000000e+00  1.5918491533520773e+00 -2.9468990991959976e-02 0.0000000000000000e+00  2.1465890078688415e-01 7.6450789063148533e-02 0.0000000000000000e+00  1.5834962981637085e-01 -1.4753794777782975e-01 0.0000000000000000e+00  1.6961612731535414e+00 7.9313041711528864e-02 0.0000000000000000e+00  1.1082585273945620e+00 2.2986368567455764e-01 0.0000000000000000e+00  5.3440595884214522e-02 -6.5646673706753866e-02 0.0000000000000000e+00  1.8403675502231945e-01 -7.5737212076445418e-02 0.0000000000000000e+00  1.1844628977605247e+00 2.2576330089709198e-01 0.0000000000000000e+00  1.1663561042251116e+00 1.9747847710174776e-01 0.0000000000000000e+00  1.2765436409470716e+00 1.8734826204632382e-01 0.0000000000000000e+00  8.3761164636171603e-01 -4.0512811839400298e-01 0.0000000000000000e+00  1.5705697664393563e+00 7.4528225091250747e-02 0.0000000000000000e+00  7.3489675150683342e-01 -4.1193837183248255e-01 0.0000000000000000e+00  3.3468366293364643e-01 1.1201704687227375e-01 0.0000000000000000e+00  3.4592229709106403e-01 -2.2457369726640899e-01 0.0000000000000000e+00  1.0661074456233792e+00 1.8120398102561372e-01 0.0000000000000000e+00  1.0223377917856984e+00 -3.0596248803476073e-01 0.0000000000000000e+00  6.6183272503397816e-01 2.4173454323424454e-01 0.0000000000000000e+00  1.6242043621727047e+00 -1.1786445892603199e-01 0.0000000000000000e+00  1.9550039002446376e-01 2.