<?xml version="1.0"?>
<VTKFile type="UnstructuredGrid"  version="0.1"  >
<UnstructuredGrid>
<Piece  NumberOfPoints="2868" NumberOfCells="5400">
<Points>
<DataArray  type="Float64"  NumberOfComponents="3"  format="ascii">0.534923 0.326073 0  0.510642 0.314196 0  0.466125 0.293082 0  0.436448 0.281205 0  0.409468 0.275927 0  0.368998 0.270648 0  0.35281 0.275927 0  0.381139 0.302319 0  0.405421 0.326073 0  0.410817 0.33531 0  0.408119 0.349826 0  0.400025 0.357744 0  0.375743 0.368301 0  0.329878 0.392055 0  0.297502 0.432963 0  0.282663 0.476511 0  0.285361 0.524018 0  0.298851 0.572845 0  0.317737 0.6045160000000001 0  0.337972 0.6361869999999999 0  0.360904 0.674457 0  0.368998 0.69953 0  0.359555 0.7219640000000001 0  0.360904 0.757594 0  0.370347 0.766831 0  0.381139 0.762872 0  0.390582 0.741758 0  0.404072 0.720644 0  0.424307 0.707448 0  0.447239 0.702169 0  0.480964 0.704808 0  0.479615 0.6889729999999999 0  0.468823 0.675776 0  0.447239 0.6691780000000001 0  0.428354 0.6691780000000001 0  0.410817 0.6639 0  0.404072 0.653343 0  0.395978 0.628269 0  0.387884 0.59132 0  0.389233 0.576804 0  0.397327 0.557009 0  0.410817 0.547772 0  0.424307 0.546452 0  0.437797 0.55305 0  0.44589 0.5662469999999999 0  0.441843 0.582082 0  0.439145 0.5979179999999999 0  0.449937 0.609795 0  0.468823 0.603196 0  0.479615 0.59 0  0.489058 0.570205 0  0.494454 0.546452 0  0.505246 0.522699 0  0.522783 0.509502 0  0.55246 0.494986 0  0.586185 0.484429 0  0.615863 0.48047 0  0.64554 0.473872 0  0.6671240000000001 0.461995 0  0.683312 0.451438 0  0.696802 0.435603 0  0.703547 0.417128 0  0.7116400000000001 0.393374 0  0.7183850000000001 0.37226 0  0.7251300000000001 0.364342 0  0.739969 0.353785 0  0.7453650000000001 0.344548 0  0.7453650000000001 0.327393 0  0.737271 0.318155 0  0.7183850000000001 0.316835 0  0.7008490000000001 0.319475 0  0.677916 0.318155 0  0.650936 0.316835 0  0.610467 0.318155 0  0.57944 0.324753 0  0.559205 0.328712 0  0.5389699999999999 0.326073 0  1 1 0  1 0 0  0 0 0  0 1 0  0.532238 0.32476 0  0.528748 0.323052 0  0.52421 0.320833 0  0.518311 0.317947 0  0.503447 0.310783 0  0.494093 0.306347 0  0.481933 0.30058 0  0.452151 0.28749 0  0.392327 0.273691 0  0.379141 0.271971 0  0.360474 0.283066 0  0.369797 0.291752 0  0.391424 0.31238 0  0.399335 0.32012 0  0.40958 0.341964 0  0.393939 0.36039 0  0.386028 0.36383 0  0.364248 0.374254 0  0.349304 0.381994 0  0.315801 0.409841 0  0.292986 0.551616 0  0.350934 0.657818 0  0.360127 0.737055 0  0.360566 0.748664 0  0.385245 0.753692 0  0.396447 0.732578 0  0.466301 0.703661 0  0.459439 0.672908 0  0.418442 0.666195 0  0.400553 0.642441 0  0.39255 0.612619 0  0.389913 0.60058 0  0.392752 0.568197 0  0.444131 0.573132 0  0.458149 0.606926 0  0.5005540000000001 0.533026 0  0.571522 0.489019 0  0.632637 0.476741 0  0.689177 0.444553 0  0.708121 0.403702 0  0.715453 0.38144 0  0.732406 0.359166 0  0.7453650000000001 0.337089 0  0.72906 0.317581 0  0.629879 0.317522 0  0.59293 0.321884 0  0.568003 0.326991 0  0.55202 0.327775 0  0.546493 0.327054 0  0.542241 0.326499 0  1 0.9 0  1 0.8 0  1 0.7 0  1 0.6 0  1 0.5 0  1 0.4 0  1 0.3 0  1 0.2 0  1 0.1 0  0.9 0 0  0.8 0 0  0.7 0 0  0.6 0 0  0.5 0 0  0.4 0 0  0.3 0 0  0.2 0 0  0.1 0 0  0.1 1 0  0.2 1 0  0.3 1 0  0.4 1 0  0.5 1 0  0.6 1 0  0.7 1 0  0.8 1 0  0.9 1 0  0 0.1 0  0 0.2 0  0 0.3 0  0 0.4 0  0 0.5 0  0 0.6 0  0 0.7 0  0 0.8 0  0 0.9 0  0.535686 0.5031910000000001 0  0.753987 0.733359 0  0.167145 0.741436 0  0.173378 0.257204 0  0.733497 0.159862 0  0.554096 0.15788 0  0.849187 0.479053 0  0.488793 0.838452 0  0.138507 0.5592 0  0.30686 0.154944 0  0.348904 0.890523 0  0.058006 0.065099 0  0.06984899999999999 0.937917 0  0.93633 0.939704 0  0.934625 0.053613 0  0.343397 0.333452 0  0.473272 0.639943 0  0.433266 0.638072 0  0.415174 0.58269 0  0.533435 0.545042 0  0.390848 0.340652 0  0.53655 0.320242 0  0.127966 0.393775 0  0.83861 0.850455 0  0.635242 0.8551299999999999 0  0.852158 0.633441 0  0.653427 0.626848 0  0.861226 0.24292 0  0.166128 0.12976 0  0.216875 0.8698709999999999 0  0.458305 0.11179 0  0.84446 0.101633 0  0.202024 0.642528 0  0.644825 0.115855 0  0.671342 0.218358 0  0.251354 0.286186 0  0.262388 0.75153 0  0.063044 0.751571 0  0.068189 0.242962 0  0.435781 0.9053949999999999 0  0.934144 0.451133 0  0.568393 0.237622 0  0.814984 0.395506 0  0.752951 0.517227 0  0.456254 0.780699 0  0.073352 0.531116 0  0.337731 0.206071 0  0.363213 0.960371 0  0.330742 0.363592 0  0.516613 0.55705 0  0.369057 0.332992 0  0.500926 0.617309 0  0.498004 0.665534 0  0.412142 0.61178 0  0.454233 0.6366039999999999 0  0.422782 0.567496 0  0.541193 0.5214800000000001 0  0.439761 0.65557 0  0.5163 0.533672 0  0.414775 0.64562 0  0.40073 0.576135 0  0.430362 0.5880339999999999 0  0.385432 0.351492 0  0.400298 0.335397 0  0.398325 0.348194 0  0.528702 0.314885 0  0.540814 0.322334 0  0.534477 0.322953 0  0.619095 0.743583 0  0.885162 0.737972 0  0.08076 0.668849 0  0.90734 0.36634 0  0.09468699999999999 0.868937 0  0.759838 0.912152 0  0.901518 0.540898 0  0.747285 0.607479 0  0.229182 0.071641 0  0.06915399999999999 0.450091 0  0.244775 0.203309 0  0.076534 0.331755 0  0.897847 0.167826 0  0.578909 0.911415 0  0.07713299999999999 0.146341 0  0.477215 0.203448 0  0.922631 0.869341 0  0.517415 0.074785 0  0.297026 0.827793 0  0.7832710000000001 0.246505 0  0.74519 0.061079 0  0.36033 0.069068 0  0.210313 0.475228 0  0.859426 0.928758 0  0.5745479999999999 0.609182 0  0.243069 0.383398 0  0.283099 0.934598 0  0.417416 0.843141 0  0.643942 0.553164 0  0.112687 0.079336 0  0.281357 0.658386 0  0.765043 0.436177 0  0.611361 0.198486 0  0.234496 0.58911 0  0.206479 0.702638 0  0.679608 0.155818 0  0.62682 0.259978 0  0.690538 0.264164 0  0.448938 0.956308 0  0.808154 0.328403 0  0.379583 0.91913 0  0.308083 0.297769 0  0.312358 0.730249 0  0.563101 0.278576 0  0.435597 0.746198 0  0.385475 0.225229 0  0.572248 0.518034 0  0.357864 0.35422 0  0.497647 0.641694 0  0.458101 0.655768 0  0.360474 0.310727 0  0.467038 0.620139 0  0.47798 0.659909 0  0.41102 0.628072 0  0.48324 0.609015 0  0.427544 0.617941 0  0.388633 0.328253 0  0.405336 0.599404 0  0.408351 0.565178 0  0.42395 0.600985 0  0.431562 0.576523 0  0.424905 0.6551979999999999 0  0.398064 0.58782 0  0.427739 0.557934 0  0.5192909999999999 0.303443 0  0.53142 0.320293 0  0.5449000000000001 0.323642 0  0.537166 0.323513 0  0.153974 0.920841 0  0.9181859999999999 0.67343 0  0.759946 0.820588 0  0.5375259999999999 0.783091 0  0.816532 0.545843 0  0.813991 0.178083 0  0.836774 0.702023 0  0.149815 0.318856 0  0.662287 0.923338 0  0.680146 0.791192 0  0.708961 0.663172 0  0.9372779999999999 0.287318 0  0.574622 0.6881660000000001 0  0.5894740000000001 0.076262 0  0.502822 0.926683 0  0.222269 0.811068 0  0.380457 0.164786 0  0.15321 0.684154 0  0.458063 0.051413 0  0.161702 0.056026 0  0.199351 0.198818 0  0.298946 0.09553200000000001 0  0.902465 0.795949 0  0.121139 0.791477 0  0.906269 0.112287 0  0.056109 0.822332 0  0.512172 0.13237 0  0.940964 0.741805 0  0.888887 0.408777 0  0.354543 0.825964 0  0.808736 0.068638 0  0.068507 0.394071 0  0.719105 0.563843 0  0.247287 0.149664 0  0.293062 0.237128 0  0.240524 0.434997 0  0.141255 0.623289 0  0.945202 0.160621 0  0.502914 0.247629 0  0.144669 0.480811 0  0.665025 0.060817 0  0.728047 0.224344 0  0.861995 0.313312 0  0.200068 0.534235 0  0.253262 0.965623 0  0.893804 0.49307 0  0.604391 0.572456 0  0.947088 0.345347 0  0.439372 0.227307 0  0.629847 0.159823 0  0.273405 0.880181 0  0.302744 0.776823 0  0.781502 0.295365 0  0.275342 0.349602 0  0.7283849999999999 0.472798 0  0.229136 0.246478 0  0.807794 0.480346 0  0.709476 0.112786 0  0.275506 0.694991 0  0.771674 0.394419 0  0.449715 0.861802 0  0.419159 0.799696 0  0.674851 0.503139 0  0.280443 0.61016 0  0.572443 0.192538 0  0.393113 0.87525 0  0.405555 0.948428 0  0.330942 0.934103 0  0.540509 0.597101 0  0.312763 0.6689310000000001 0  0.254368 0.540179 0  0.595265 0.25915 0  0.606679 0.234099 0  0.657131 0.279138 0  0.722458 0.279478 0  0.333 0.308056 0  0.351529 0.246142 0  0.455714 0.7257940000000001 0  0.585239 0.295143 0  0.340062 0.72492 0  0.545593 0.293773 0  0.555449 0.545426 0  0.414311 0.737314 0  0.590854 0.502323 0  0.350507 0.368444 0  0.484423 0.625665 0  0.483899 0.674542 0  0.378137 0.317274 0  0.446416 0.646404 0  0.373532 0.347654 0  0.446876 0.619769 0  0.466106 0.666068 0  0.437545 0.609254 0  0.434988 0.565726 0  0.41462 0.656829 0  0.418803 0.556961 0  0.398425 0.327446 0  0.517803 0.310421 0  0.549516 0.322918 0  0.57701 0.842889 0  0.8291269999999999 0.773906 0  0.643235 0.684732 0  0.134281 0.207734 0  0.865997 0.055966 0  0.680959 0.723345 0  0.165229 0.8415550000000001 0  0.54558 0.959672 0  0.783726 0.656439 0  0.913315 0.595533 0  0.699439 0.860667 0  0.785839 0.125076 0  0.551673 0.037713 0  0.9200970000000001 0.223214 0  0.206406 0.299726 0  0.087064 0.596401 0  0.935644 0.394252 0  0.964557 0.252582 0  0.230124 0.928346 0  0.120579 0.271764 0  0.8572149999999999 0.524082 0  0.7670979999999999 0.5551469999999999 0  0.936094 0.507131 0  0.804064 0.59585 0  0.700565 0.608273 0  0.429773 0.174231 0  0.117746 0.727333 0  0.5389620000000001 0.730231 0  0.862761 0.359173 0  0.821444 0.284046 0  0.193552 0.35818 0  0.234923 0.505555 0  0.193209 0.421217 0  0.220144 0.755896 0  0.594015 0.131642 0  0.283813 0.195855 0  0.517519 0.213961 0  0.553509 0.639116 0  0.280391 0.378018 0  0.852183 0.436817 0  0.746983 0.197173 0  0.821806 0.221318 0  0.449853 0.828453 0  0.883758 0.453926 0  0.183484 0.589542 0  0.348384 0.129314 0  0.255254 0.838525 0  0.504849 0.798516 0  0.320344 0.863432 0  0.611669 0.525425 0  0.265864 0.804962 0  0.72056 0.521442 0  0.613372 0.6101220000000001 0  0.481262 0.881068 0  0.655778 0.191988 0  0.701921 0.196918 0  0.5658260000000001 0.5731810000000001 0  0.46914 0.240927 0  0.343219 0.173284 0  0.888786 0.278502 0  0.244113 0.6750930000000001 0  0.739546 0.417914 0  0.784023 0.355942 0  0.326805 0.265549 0  0.248616 0.6
[...]
<PointData  Vectors="f_21"> 
<DataArray  type="Float64"  Name="f_21"  NumberOfComponents="3" format="ascii">4.1451740518512037e-01 -2.9296082819449159e-02 0.0000000000000000e+00  4.0550643202097642e-01 -3.0699021642955435e-02 0.0000000000000000e+00  3.6638073688719058e-01 -2.6440075105593035e-02 0.0000000000000000e+00  3.2601892353825535e-01 -2.0505640443859306e-02 0.0000000000000000e+00  2.8429694748380901e-01 -1.5042976969978005e-02 0.0000000000000000e+00  2.0461416008229022e-01 2.1266363339017759e-03 0.0000000000000000e+00  1.5321777261615716e-01 8.3505691507495348e-03 0.0000000000000000e+00  8.7810879461379304e-02 5.1405810123125437e-02 0.0000000000000000e+00  5.9358185121007066e-02 7.3856511117546333e-02 0.0000000000000000e+00  4.9540091672937950e-02 7.9339228059953984e-02 0.0000000000000000e+00  3.4136285674968445e-02 7.6289937033392000e-02 0.0000000000000000e+00  2.5805388721776543e-02 6.7509879852134080e-02 0.0000000000000000e+00  1.6433092005057649e-02 4.0714258949506699e-02 0.0000000000000000e+00  7.5223602819798549e-03 -5.4688444656186624e-04 0.0000000000000000e+00  1.8831080214733581e-03 -1.0872040928521004e-02 0.0000000000000000e+00  4.6474448233102279e-04 -6.5098347582781216e-03 0.0000000000000000e+00  -5.9614846318755896e-04 1.6296370995596225e-03 0.0000000000000000e+00  -2.1107002341420886e-03 5.9123566175619448e-03 0.0000000000000000e+00  -4.9458482019934091e-04 1.6573679551248009e-03 0.0000000000000000e+00  7.1884337831300870e-03 -1.0344588284578210e-02 0.0000000000000000e+00  2.8190726520478378e-02 -3.3127092985806780e-02 0.0000000000000000e+00  5.0336590505551997e-02 -4.4798279933776393e-02 0.0000000000000000e+00  7.5101998040240689e-02 -4.1113240051553729e-02 0.0000000000000000e+00  1.5690647836985153e-01 -5.0372460019300853e-02 0.0000000000000000e+00  2.2260779538312539e-01 -6.4964280143103986e-02 0.0000000000000000e+00  2.7595515761310946e-01 -6.6565177181107840e-02 0.0000000000000000e+00  3.5095470834919629e-01 -6.3967063444338432e-02 0.0000000000000000e+00  3.8500954197261250e-01 -5.0201479496366226e-02 0.0000000000000000e+00  3.9873610910643953e-01 -3.8262926079278677e-02 0.0000000000000000e+00  4.0704968066657699e-01 -3.5626878195047597e-02 0.0000000000000000e+00  4.5425405932239948e-01 -6.9267717391377229e-02 0.0000000000000000e+00  5.2665586098336481e-01 -8.8414732803566431e-02 0.0000000000000000e+00  5.7586067700777210e-01 -9.4491413469170379e-02 0.0000000000000000e+00  6.1914006231803331e-01 -6.9454268276161898e-02 0.0000000000000000e+00  6.4429666972058308e-01 -2.4489564130464558e-02 0.0000000000000000e+00  6.4089577249601692e-01 2.1277526213065875e-02 0.0000000000000000e+00  6.2112685263135670e-01 3.9773268065942065e-02 0.0000000000000000e+00  5.6766609830872228e-01 8.3923059620188867e-02 0.0000000000000000e+00  4.2525122044558250e-01 1.5677423313336777e-01 0.0000000000000000e+00  3.5336321086022665e-01 1.5811057186357472e-01 0.0000000000000000e+00  2.5019624325606094e-01 1.2342954632211357e-01 0.0000000000000000e+00  2.0129108021527439e-01 5.6173333733154057e-02 0.0000000000000000e+00  1.9377282961368983e-01 -1.2423217774111466e-02 0.0000000000000000e+00  2.2740012145408034e-01 -8.1935825994791725e-02 0.0000000000000000e+00  2.9711697481943106e-01 -1.2453221345543418e-01 0.0000000000000000e+00  3.8397839717488530e-01 -9.9924431376262626e-02 0.0000000000000000e+00  4.7358294000931916e-01 -7.0765590218586819e-02 0.0000000000000000e+00  5.4981290162975072e-01 -8.4021941287171192e-02 0.0000000000000000e+00  5.9154194298720830e-01 -9.2995800092383174e-02 0.0000000000000000e+00  6.1860425408794095e-01 -8.9629787428735730e-02 0.0000000000000000e+00  6.4254526680126423e-01 -8.4633537388222463e-02 0.0000000000000000e+00  6.6374361720842390e-01 -8.1660843723979470e-02 0.0000000000000000e+00  6.8282376793506550e-01 -7.4129463282564714e-02 0.0000000000000000e+00  6.9316693734035051e-01 -6.1303587551459149e-02 0.0000000000000000e+00  7.0435847636676618e-01 -4.0262336829691554e-02 0.0000000000000000e+00  7.1272596866626936e-01 -1.8001429365773428e-02 0.0000000000000000e+00  7.1684417263021538e-01 -8.6199423085385279e-04 0.0000000000000000e+00  7.2361944731243388e-01 1.2616333865892488e-02 0.0000000000000000e+00  7.3311197969474950e-01 2.0867320965432944e-02 0.0000000000000000e+00  7.4132610555906941e-01 2.7781373681472672e-02 0.0000000000000000e+00  7.5096543628337309e-01 3.6188069002305111e-02 0.0000000000000000e+00  7.5820395798373474e-01 4.3957547058433660e-02 0.0000000000000000e+00  7.6251885925104279e-01 5.4576045144777770e-02 0.0000000000000000e+00  7.6271805598895248e-01 6.1762974740403043e-02 0.0000000000000000e+00  7.6286432348854938e-01 6.5000706872913025e-02 0.0000000000000000e+00  7.5854175078869923e-01 7.6233797729336972e-02 0.0000000000000000e+00  7.4707412079869362e-01 8.4061744169018154e-02 0.0000000000000000e+00  7.0656353740654287e-01 9.3112044478692951e-02 0.0000000000000000e+00  6.6339025602090873e-01 9.5118609235209275e-02 0.0000000000000000e+00  6.1171545369647218e-01 8.0933218398638013e-02 0.0000000000000000e+00  5.8036065609510068e-01 6.6981786523011011e-02 0.0000000000000000e+00  5.5075359178003636e-01 5.4096220738677384e-02 0.0000000000000000e+00  5.1406337029542593e-01 3.9033903873687006e-02 0.0000000000000000e+00  4.6196679857860773e-01 1.3283002887600351e-02 0.0000000000000000e+00  4.2994010479224792e-01 -9.2305074987373489e-03 0.0000000000000000e+00  4.1951676709313657e-01 -2.1183895536544702e-02 0.0000000000000000e+00  4.1520165160928862e-01 -2.8358855424436249e-02 0.0000000000000000e+00  8.4116541404536027e-01 -2.1326297882845402e-01 0.0000000000000000e+00  8.4217213312483319e-01 1.6996441163549006e-01 0.0000000000000000e+00  0.0000000000000000e+00 0.0000000000000000e+00 0.0000000000000000e+00  0.0000000000000000e+00 0.0000000000000000e+00 0.0000000000000000e+00  4.1423257353474446e-01 -2.9625393865795404e-02 0.0000000000000000e+00  4.1342966405999543e-01 -2.9963479835741210e-02 0.0000000000000000e+00  4.1194993164587196e-01 -3.0327487424471333e-02 0.0000000000000000e+00  4.0952459731069585e-01 -3.0582517982834900e-02 0.0000000000000000e+00  4.0102342631594323e-01 -3.0579002520297195e-02 0.0000000000000000e+00  3.9416721319987919e-01 -3.0137276889262946e-02 0.0000000000000000e+00  3.8371451904839049e-01 -2.8824699450313206e-02 0.0000000000000000e+00  3.4931535866506597e-01 -2.3834432901355829e-02 0.0000000000000000e+00  2.5646299265127215e-01 -9.6395766747093253e-03 0.0000000000000000e+00  2.3175959462647977e-01 -4.1000879764705655e-03 0.0000000000000000e+00  1.2490569818568721e-01 2.8857005459841947e-02 0.0000000000000000e+00  1.0489966048777884e-01 4.0507121360769359e-02 0.0000000000000000e+00  7.4649048311435429e-02 6.0494019011178263e-02 0.0000000000000000e+00  6.5828390210224672e-02 6.7884939633963651e-02 0.0000000000000000e+00  4.2489893587087546e-02 7.7948052607281201e-02 0.0000000000000000e+00  2.3117357276055080e-02 6.0825927769117043e-02 0.0000000000000000e+00  1.9900530703087501e-02 5.2084170348827181e-02 0.0000000000000000e+00  1.2598613834249719e-02 2.8385595821642091e-02 0.0000000000000000e+00  9.5851143146505301e-03 1.4206750505943338e-02 0.0000000000000000e+00  4.3385693722281099e-03 -7.6107426649427200e-03 0.0000000000000000e+00  -1.4928144248475160e-03 5.0610077073831262e-03 0.0000000000000000e+00  1.7090286300324165e-02 -2.2241057264535576e-02 0.0000000000000000e+00  9.9619384107309319e-02 -4.7295757829504757e-02 0.0000000000000000e+00  1.2593187671743450e-01 -5.1396338986953401e-02 0.0000000000000000e+00  3.1991815514955169e-01 -6.8914710508517038e-02 0.0000000000000000e+00  3.6843549973673362e-01 -5.7450746298512864e-02 0.0000000000000000e+00  4.2177282059072518e-01 -4.4975986161111800e-02 0.0000000000000000e+00  5.9769934449662854e-01 -8.5889182281797830e-02 0.0000000000000000e+00  6.4388466915040876e-01 1.5076238310368975e-03 0.0000000000000000e+00  6.0102387206751284e-01 5.5263174391060071e-02 0.0000000000000000e+00  5.1931299154143873e-01 1.1443661726650824e-01 0.0000000000000000e+00  4.6903073888142671e-01 1.3973697081487751e-01 0.0000000000000000e+00  3.0884871061695546e-01 1.4405674350349884e-01 0.0000000000000000e+00  3.3453673988772198e-01 -1.1464242363381023e-01 0.0000000000000000e+00  5.6970860077090690e-01 -9.0620625993192580e-02 0.0000000000000000e+00  6.7465698164386478e-01 -7.7472299588492777e-02 0.0000000000000000e+00  7.0909355965704302e-01 -2.7435350786824367e-02 0.0000000000000000e+00  7.2048135201696129e-01 7.2959116189585133e-03 0.0000000000000000e+00  7.4588524938892309e-01 3.1110435592634544e-02 0.0000000000000000e+00  7.6135254894484472e-01 5.0038477627240514e-02 0.0000000000000000e+00  7.6277928892846247e-01 5.9226996285481240e-02 0.0000000000000000e+00  7.6158879295752713e-01 6.9605031763624800e-02 0.0000000000000000e+00  7.3289543190752338e-01 9.1615162182056550e-02 0.0000000000000000e+00  6.3772851122109930e-01 8.8332887498575222e-02 0.0000000000000000e+00  4.8581859009685124e-01 2.5537793137734112e-02 0.0000000000000000e+00  4.4123198388636803e-01 2.8929341608930026e-04 0.0000000000000000e+00  4.2310973113845740e-01 -1.6457046086668675e-02 0.0000000000000000e+00  4.1824089073308768e-01 -2.4212727292546067e-02 0.0000000000000000e+00  4.1695219845401549e-01 -2.6134409742259390e-02 0.0000000000000000e+00  4.1595371166610051e-01 -2.7456591645026861e-02 0.0000000000000000e+00  8.3052740595731078e-01 -1.7049501318354116e-01 0.0000000000000000e+00  8.2523135717921214e-01 -1.0886297095071128e-01 0.0000000000000000e+00  8.4511513098019886e-01 -3.6867658667733970e-02 0.0000000000000000e+00  8.9029228053352161e-01 1.3527882730025318e-02 0.0000000000000000e+00  9.2700369480308797e-01 4.0098110651691173e-02 0.0000000000000000e+00  9.3375596148672135e-01 5.3685137550162750e-02 0.0000000000000000e+00  9.0579777212215418e-01 7.0079984127781700e-02 0.0000000000000000e+00  8.6858924790074654e-01 1.0191783417298562e-01 0.0000000000000000e+00  8.4949174069665323e-01 1.3789653755879180e-01 0.0000000000000000e+00  7.5387830446169701e-01 1.7870694235806153e-01 0.0000000000000000e+00  6.7789030746901191e-01 1.7599533478372364e-01 0.0000000000000000e+00  5.9718829899844839e-01 1.4574469083797403e-01 0.0000000000000000e+00  4.9717200915288901e-01 1.0800956756307402e-01 0.0000000000000000e+00  3.8753976351073399e-01 8.5514116762632708e-02 0.0000000000000000e+00  2.8691938374371040e-01 7.6728802809320040e-02 0.0000000000000000e+00  1.9915764664105301e-01 5.8865929024213580e-02 0.0000000000000000e+00  1.1655049547420672e-01 3.3989440223262203e-02 0.0000000000000000e+00  5.1004489751305698e-02 1.6462300229067080e-02 0.0000000000000000e+00  5.2549538921074487e-02 -1.5886382320972670e-02 0.0000000000000000e+00  1.2258535135897063e-01 -3.3708324715056422e-02 0.0000000000000000e+00  2.1324269401687448e-01 -6.5003562434855874e-02 0.0000000000000000e+00  2.9999067449149547e-01 -9.3901922827307513e-02 0.0000000000000000e+00  3.8798195772006849e-01 -1.1073662750155595e-01 0.0000000000000000e+00  4.8010324550406580e-01 -1.3048518880068921e-01 0.0000000000000000e+00  5.6981971893146299e-01 -1.5343757818795672e-01 0.0000000000000000e+00  6.5895066171104333e-01 -1.7645222910820860e-01 0.0000000000000000e+00  7.4894973080558735e-01 -1.9816905617716413e-01 0.0000000000000000e+00  0.0000000000000000e+00 0.0000000000000000e+00 0.0000000000000000e+00  0.0000000000000000e+00 0.0000000000000000e+00 0.0000000000000000e+00  0.0000000000000000e+00 0.0000000000000000e+00 0.0000000000000000e+00  0.0000000000000000e+00 0.0000000000000000e+00 0.0000000000000000e+00  0.0000000000000000e+00 0.0000000000000000e+00 0.0000000000000000e+00  0.0000000000000000e+00 0.0000000000000000e+00 0.0000000000000000e+00  0.0000000000000000e+00 0.0000000000000000e+00 0.0000000000000000e+00  0.0000000000000000e+00 0.0000000000000000e+00 0.0000000000000000e+00  0.0000000000000000e+00 0.0000000000000000e+00 0.0000000000000000e+00  6.9804748936262362e-01 -5.2072533516347060e-02 0.0000000000000000e+00  6.2352828976560482e-01 -5.0335731512906740e-02 0.0000000000000000e+00  3.9746041254394709e-02 2.0204544118994541e-02 0.0000000000000000e+00  5.2489585318042715e-02 -1.9390459874608763e-02 0.0000000000000000e+00  6.1499179475851018e-01 1.1883416301918474e-01 0.0000000000000000e+00  4.4099958205428619e-01 4.1394935793833389e-02 0.0000000000000000e+00  8.0574018598345576e-01 3.3478544332068712e-02 0.0000000000000000e+00  3.5734542661116286e-01 -6.6793563302113015e-02 0.0000000000000000e+00  3.9281710882789382e-03 3.6949771787925128e-03 0.0000000000000000e+00  1.8115064041641857e-01 1.4473421018977816e-02 0.0000000000000000e+00  2.3240079538473069e-01 -5.2223266325085477e-02 0.0000000000000000e+00  2.3054003362370935e-02 2.7882558757940708e-03 0.0000000000000000e+00  2.9037977476064063e-02 -3.1635753564971396e-03 0.0000000000000000e+00  7.7259700245285656e-01 -1.8236349980480521e-01 0.0000000000000000e+00  7.8639679437183507e-01 1.6006560865955385e-01 0.0000000000000000e+00  4.9292836412866602e-02 8.5116114498601896e-03 0.0000000000000000e+00  5.8909634623622276e-01 -9.4723384812071681e-02 0.0000000000000000e+00  5.9110662885033172e-01 -4.3192825049383238e-02 0.0000000000000000e+00  3.8839601408732732e-01 3.3347896886385106e-02 0.0000000000000000e+00  6.6522481993117555e-01 -5.2992801732088000e-02 0.0000000000000000e+00  4.3666221288234774e-02 5.8033292064633576e-02 0.0000000000000000e+00  4.1524254939367405e-01 -2.8478280516913920e-02 0.0000000000000000e+00  1.0327037252497237e-02 -1.0624698603153855e-02 0.0000000000000000e+00  6.7085824454533916e-01 -1.2442901359973588e-01 0.0000000000000000e+00  4.8907169930222411e-01 -8.4348244697493927e-02 0.0000000000000000e+00  7.4616222482639138e-01 -2.6006888448286566e-02 0.0000000000000000e+00  6.3151891182337250e-01 -2.6444481180629815e-03 0.0000000000000000e+00  7.5355304147239233e-01 1.0987260892757350e-01 0.0000000000000000e+00  7.2282828248619133e-02 -1.8854128648362775e-04 0.0000000000000000e+00  1.0801116280607079e-01 -1.9251500169442395e-03 0.0000000000000000e+00  3.3716388802685909e-01 4.2756785965420714e-02 0.0000000000000000e+00  7.1063001202599119e-01 1.5259105140442764e-01 0.0000000000000000e+00  1.2702907943567489e-02 1.7354976199136660e-02 0.0000000000000000e+00  5.3171382622291363e-01 9.1236630152031137e-02 0.0000000000000000e+00  5.6007791059253575e-01 8.1624885947289394e-02 0.0000000000000000e+00  7.4182429932468721e-02 -2.6926545035660651e-02 0.0000000000000000e+00  8.3144459268557611e-02 2.0119799524249967e-02 0.0000000000000000e+00  1.4353074749625720e-02 6.9390623777058832e-03 0.0000000000000000e+00  1.8913297717208444e-02 -6.4760659724796936e-03 0.0000000000000000e+00  3.1288114605084971e-01 -7.6762971984347617e-02 0.0000000000000000e+00  8.7691609439671137e-01 4.3458090115855705e-02 0.0000000000000000e+00  4.5177976357845684e-01 1.5398461793999398e-02 0.0000000000000000e+00  7.9129659880390268e-01 5.9414498048371199e-02 0.0000000000000000e+00  7.3471890193203582e-01 2.6364574550488226e-02 0.0000000000000000e+00  3.5011253539524623e-01 -5.0880230118614964e-02 0.0000000000000000e+00  2.4517896909764469e-03 6.5257478633648567e-04 0.0000000000000000e+00  1.9821432256486932e-01 8.7405167753664970e-03 0.0000000000000000e+00  2.5959617507317295e-01 -7.3258390253529190e-02 0.0000000000000000e+00  2.2993478964715083e-02 -3.2573374169176083e-04 0.0000000000000000e+00  6.5473522945128493e-01 -6.4225250260712408e-02 0.0000000000000000e+00  5.0774975824698837e-02 3.5093565783875701e-02 0.0000000000000000e+00  6.0012179046423775e-01 -7.6318139211416142e-02 0.0000000000000000e+00  5.6921704655204219e-01 -7.0621171157616791e-02 0.0000000000000000e+00  5.2185568229317580e-01 3.5675173817150900e-02 0.0000000000000000e+00  5.8701203386897860e-01 -8.7137532037847965e-02 0.0000000000000000e+00  3.0547171291425207e-01 -3.7326319519834015e-03 0.0000000000000000e+00  6.8435205661658682e-01 -4.8054089803808778e-02 0.0000000000000000e+00  6.1125073150786102e-01 -5.7176580790827457e-02 0.0000000000000000e+00  6.7416622957189520e-01 -6.5638634806455626e-02 0.0000000000000000e+00  6.0668525590075395e-01 1.3017898751315161e-02 0.0000000000000000e+00  3.5144166868851068e-01 1.0283179514327545e-01 0.0000000000000000e+00  4.1874642502550180e-01 -3.6971564500601781e-02 0.0000000000000000e+00  3.2453923326332221e-02 5.1635936776112348e-02 0.0000000000000000e+00  4.9393944091157285e-02 6.8282440465575869e-02 0.0000000000000000e+00  3.5858099233503957e-02 6.5790289992197493e-02 0.0000000000000000e+00  4.1221780178242856e-01 -2.9354211987046845e-02 0.0000000000000000e+00  4.1633481935018163e-01 -2.7516986887918943e-02 0.0000000000000000e+00  4.1460181929732703e-01 -2.9198202719370462e-02 0.0000000000000000e+00  5.1661817765108176e-01 -3.5769431427475927e-02 0.0000000000000000e+00  7.2654673648368606e-01 -7.2676763130001404e-02 0.0000000000000000e+00  9.4770559842526480e-03 7.5069024865626020e-03 0.0000000000000000e+00  8.4676119649918102e-01 6.7884612585180151e-02 0.0000000000000000e+00  3.4868780525909443e-02 3.2709660194830364e-03 0.0000000000000000e+00  6.0609848698638047e-01 -1.3541742899518075e-01 0.0000000000000000e+00  8.2856644669897972e-01 1.0439854930940818e-02 0.0000000000000000e+00  6.9079380338541763e-01 -1.4891363348025837e-03 0.0000000000000000e+00  1.2578255840599858e-01 2.1873658386106557e-02 0.0000000000000000e+00  3.4413784045293772e-03 -2.9845864617089775e-03 0.0000000000000000e+00  1.1343803801841659e-01 -1.0596700954851036e-02 0.0000000000000000e+00  1.2268059810502436e-02 -7.9986282285775586e-03 0.0000000000000000e+00  7.6654841028454579e-01 1.3146676023638754e-01 0.0000000000000000e+00  4.4216700178688312e-01 -9.7209660946692228e-02 0.0000000000000000e+00  2.7615610578646702e-02 -2.3847542944791058e-03 0.0000000000000000e+00  3.5127259916577525e-01 5.3541516808406188e-03 0.0000000000000000e+00  7.5053510630901976e-01 -1.4661760172727820e-01 0.0000000000000000e+00  4.0119556617105517e-01 6.2649282537583770e-02 0.0000000000000000e+00  1.6649153130580593e-01 -1.3097794685525467e-02 0.0000000000000000e+00  6.7438266724445828e-01 1.0801256641952930e-01 0.0000000000000000e+00  6.2425976327485266e-01 1.4524644366753725e-01 0.0000000000000000e+00  2.4298382721574852e-01 4.9570516004794771e-02 0.0000000000000000e+00  3.3291346329048501e-03 -6.0356396952053861e-03 0.0000000000000000e+00  6.9866626281251321e-01 -1.6450286662850916e-01 0.0000000000000000e+00  6.2099138190941072e-01 -2.7236459118233997e-02 0.0000000000000000e+00  1.5695291284636932e-02 -2.0960345596007398e-02 0.0000000000000000e+00  1.8096321193149770e-01 -3.9502489585105494e-02 0.0000000000000000e+00  2.8601526693212220e-01 -6.3697791476096555e-02 0.0000000000000000e+00  6.7773011923078019e-01 6.5748143964430164e-03 0.0000000000000000e+00  4.8109923293041139e-02 5.0131913238885811e-03 0.0000000000000000e+00  1.8008468696037314e-02 1.3649950932460601e-02 0.0000000000000000e+00  7.6759014734041886e-01 5.1454309369700267e-02 0.0000000000000000e+00  5.0080828439591263e-01 5.3520384295307658e-02 0.0000000000000000e+00  2.4110867617260054e-03 9.7662414731352655e-03 0.0000000000000000e+00  3.3999169551561473e-02 2.3324440526377853e-02 0.0000000000000000e+00  5.6576066059270880e-01 9.8275052829186180e-02 0.0000000000000000e+00  5.0954734979158289e-01 4.3914908270134480e-02 0.0000000000000000e+00  5.7950477575776926e-01 8.2284092276978041e-02 0.0000000000000000e+00  3.3412070299051416e-01 -9.0414986466634373e-02 0.0000000000000000e+00  7.5244229175340016e-01 7.3830514331865188e-02 0.0000000000000000e+00  2.6560292139961389e-01 -6.7841418107468854e-02 0.0000000000000000e+00  8.8275072592741033e-02 -1.9535225617129399e-02 0.0000000000000000e+00  8.1620333349856425e-02 5.8041775789919332e-03 0.0000000000000000e+00  4.3930903862112231e-01 -5.0517026845700230e-03 0.0000000000000000e+00  3.6750445746807953e-01 -4.0656669550157919e-02 0.0000000000000000e+00  2.4193710832303772e-01 9.8180802550569789e-03 0.0000000000000000e+00  6.8870773530615448e-01 -2.7162587915623090e-02 0.0000000000000000e+00  2.990110